 DBCSR| Multiplication driver                                                SMM
 DBCSR| Multrec recursion limit                                              512
 DBCSR| Multiplication stack size                                           1000
 DBCSR| Multiplication size stacks                                             3
 DBCSR| Use subcommunicators                                                   T
 DBCSR| Use MPI combined types                                                 F
 DBCSR| Use MPI memory allocation                                              T
 DBCSR| Use Communication thread                                               T
 DBCSR| Communication thread load                                             87


  **** **** ******  **  PROGRAM STARTED AT               2016-05-31 12:13:20.080
 ***** ** ***  *** **   PROGRAM STARTED ON                   lauri-Lenovo-Z50-70
 **    ****   ******    PROGRAM STARTED BY                                 lauri
 ***** **    ** ** **   PROGRAM PROCESS ID                                  8185
  **** **  *******  **  PROGRAM STARTED IN /home/lauri/Dropbox/nomad-dev/nomad-l
                                           ab-base/parsers/cp2k/test/unittests/c
                                           p2k_2.6.2/geo_opt/bfgs

 CP2K| version string:                                        CP2K version 2.6.2
 CP2K| source code revision number:                                    svn:15893
 CP2K| is freely available from                             http://www.cp2k.org/
 CP2K| Program compiled at                           ke 4.11.2015 08.48.42 +0200
 CP2K| Program compiled on                                   lauri-Lenovo-Z50-70
 CP2K| Program compiled for                          Linux-x86-64-gfortran_basic
 CP2K| Input file name                                               geo_opt.inp

 GLOBAL| Force Environment number                                              1
 GLOBAL| Basis set file name                                     ../../BASIS_SET
 GLOBAL| Geminal file name                                         BASIS_GEMINAL
 GLOBAL| Potential file name                                ../../GTH_POTENTIALS
 GLOBAL| MM Potential file name                                     MM_POTENTIAL
 GLOBAL| Coordinate file name                                      __STD_INPUT__
 GLOBAL| Method name                                                        CP2K
 GLOBAL| Project name                                                        H2O
 GLOBAL| Preferred FFT library                                             FFTW3
 GLOBAL| Preferred diagonalization lib.                                       SL
 GLOBAL| Run type                                                        GEO_OPT
 GLOBAL| All-to-all communication in single precision                          F
 GLOBAL| FFTs using library dependent lengths                                  F
 GLOBAL| Global print level                                               MEDIUM
 GLOBAL| Total number of message passing processes                             1
 GLOBAL| Number of threads for this process                                    1
 GLOBAL| This output is from process                                           0

 MEMORY| system memory details [Kb]
 MEMORY|                        rank 0           min           max       average
 MEMORY| MemTotal              8070360       8070360       8070360       8070360
 MEMORY| MemFree               2879820       2879820       2879820       2879820
 MEMORY| Buffers                891260        891260        891260        891260
 MEMORY| Cached                1913832       1913832       1913832       1913832
 MEMORY| Slab                   469764        469764        469764        469764
 MEMORY| SReclaimable           431648        431648        431648        431648
 MEMORY| MemLikelyFree         6116560       6116560       6116560       6116560


 *** Fundamental physical constants (SI units) ***

 *** Literature: B. J. Mohr and B. N. Taylor,
 ***             CODATA recommended values of the fundamental physical
 ***             constants: 2006, Web Version 5.1
 ***             http://physics.nist.gov/constants

 Speed of light in vacuum [m/s]                             2.99792458000000E+08
 Magnetic constant or permeability of vacuum [N/A**2]       1.25663706143592E-06
 Electric constant or permittivity of vacuum [F/m]          8.85418781762039E-12
 Planck constant (h) [J*s]                                  6.62606896000000E-34
 Planck constant (h-bar) [J*s]                              1.05457162825177E-34
 Elementary charge [C]                                      1.60217648700000E-19
 Electron mass [kg]                                         9.10938215000000E-31
 Electron g factor [ ]                                     -2.00231930436220E+00
 Proton mass [kg]                                           1.67262163700000E-27
 Fine-structure constant                                    7.29735253760000E-03
 Rydberg constant [1/m]                                     1.09737315685270E+07
 Avogadro constant [1/mol]                                  6.02214179000000E+23
 Boltzmann constant [J/K]                                   1.38065040000000E-23
 Atomic mass unit [kg]                                      1.66053878200000E-27
 Bohr radius [m]                                            5.29177208590000E-11

 *** Conversion factors ***

 [u] -> [a.u.]                                              1.82288848426455E+03
 [Angstrom] -> [Bohr] = [a.u.]                              1.88972613288564E+00
 [a.u.] = [Bohr] -> [Angstrom]                              5.29177208590000E-01
 [a.u.] -> [s]                                              2.41888432650478E-17
 [a.u.] -> [fs]                                             2.41888432650478E-02
 [a.u.] -> [J]                                              4.35974393937059E-18
 [a.u.] -> [N]                                              8.23872205491840E-08
 [a.u.] -> [K]                                              3.15774647902944E+05
 [a.u.] -> [kJ/mol]                                         2.62549961709828E+03
 [a.u.] -> [kcal/mol]                                       6.27509468713739E+02
 [a.u.] -> [Pa]                                             2.94210107994716E+13
 [a.u.] -> [bar]                                            2.94210107994716E+08
 [a.u.] -> [atm]                                            2.90362800883016E+08
 [a.u.] -> [eV]                                             2.72113838565563E+01
 [a.u.] -> [Hz]                                             6.57968392072181E+15
 [a.u.] -> [1/cm] (wave numbers)                            2.19474631370540E+05
 [a.u./Bohr**2] -> [1/cm]                                   5.14048714338585E+03
 

 CELL_TOP| Volume [angstrom^3]:                                         1912.997
 CELL_TOP| Vector a [angstrom    12.414     0.000     0.000    |a| =      12.414
 CELL_TOP| Vector b [angstrom     0.000    12.414     0.000    |b| =      12.414
 CELL_TOP| Vector c [angstrom     0.000     0.000    12.414    |c| =      12.414
 CELL_TOP| Angle (b,c), alpha [degree]:                                   90.000
 CELL_TOP| Angle (a,c), beta  [degree]:                                   90.000
 CELL_TOP| Angle (a,b), gamma [degree]:                                   90.000
 CELL_TOP| Numerically orthorhombic:                                         YES

 GENERATE|  Preliminary Number of Bonds generated:                             0
 GENERATE|  Achieved consistency in connectivity generation.

 CELL| Volume [angstrom^3]:                                             1912.997
 CELL| Vector a [angstrom]:      12.414     0.000     0.000    |a| =      12.414
 CELL| Vector b [angstrom]:       0.000    12.414     0.000    |b| =      12.414
 CELL| Vector c [angstrom]:       0.000     0.000    12.414    |c| =      12.414
 CELL| Angle (b,c), alpha [degree]:                                       90.000
 CELL| Angle (a,c), beta  [degree]:                                       90.000
 CELL| Angle (a,b), gamma [degree]:                                       90.000
 CELL| Numerically orthorhombic:                                             YES

 CELL_REF| Volume [angstrom^3]:                                         1912.997
 CELL_REF| Vector a [angstrom    12.414     0.000     0.000    |a| =      12.414
 CELL_REF| Vector b [angstrom     0.000    12.414     0.000    |b| =      12.414
 CELL_REF| Vector c [angstrom     0.000     0.000    12.414    |c| =      12.414
 CELL_REF| Angle (b,c), alpha [degree]:                                   90.000
 CELL_REF| Angle (a,c), beta  [degree]:                                   90.000
 CELL_REF| Angle (a,b), gamma [degree]:                                   90.000
 CELL_REF| Numerically orthorhombic:                                         YES

 *******************************************************************************
 *******************************************************************************
 **                                                                           **
 **     #####                         ##              ##                      **
 **    ##   ##            ##          ##              ##                      **
 **   ##     ##                       ##            ######                    **
 **   ##     ##  ##   ##  ##   #####  ##  ##   ####   ##    #####    #####    **
 **   ##     ##  ##   ##  ##  ##      ## ##   ##      ##   ##   ##  ##   ##   **
 **   ##  ## ##  ##   ##  ##  ##      ####     ###    ##   ######   ######    **
 **    ##  ###   ##   ##  ##  ##      ## ##      ##   ##   ##       ##        **
 **     #######   #####   ##   #####  ##  ##  ####    ##    #####   ##        **
 **           ##                                                    ##        **
 **                                                                           **
 **                                                ... make the atoms dance   **
 **                                                                           **
 **            Copyright (C) by CP2K Developers Group (2000 - 2014)           **
 **                                                                           **
 *******************************************************************************

 DFT| Spin restricted Kohn-Sham (RKS) calculation                            RKS
 DFT| Multiplicity                                                             1
 DFT| Number of spin states                                                    1
 DFT| Charge                                                                   0
 DFT| Self-interaction correction (SIC)                                       NO
 DFT| Cutoffs: density                                              1.000000E-10
 DFT|          gradient                                             1.000000E-10
 DFT|          tau                                                  1.000000E-10
 DFT|          cutoff_smoothing_range                               0.000000E+00
 DFT| XC density smoothing                                                  NONE
 DFT| XC derivatives                                                          PW
 FUNCTIONAL| ROUTINE=NEW
 FUNCTIONAL| PADE:
 FUNCTIONAL| S. Goedecker, M. Teter and J. Hutter, Phys. Rev. B 54, 1703 (1996)

 QS| Method:                                                                 GPW
 QS| Density plane wave grid type                        NON-SPHERICAL FULLSPACE
 QS| Number of grid levels:                                                    4
 QS| Density cutoff [a.u.]:                                                 50.0
 QS| Multi grid cutoff [a.u.]: 1) grid level                                50.0
 QS|                           2) grid level                                16.7
 QS|                           3) grid level                                 5.6
 QS|                           4) grid level                                 1.9
 QS| Grid level progression factor:                                          3.0
 QS| Relative density cutoff [a.u.]:                                        15.0
 QS| Consistent realspace mapping and integration 
 QS| Interaction thresholds: eps_pgf_orb:                                3.2E-04
 QS|                         eps_filter_matrix:                          0.0E+00
 QS|                         eps_core_charge:                            1.0E-09
 QS|                         eps_rho_gspace:                             1.0E-07
 QS|                         eps_rho_rspace:                             1.0E-07
 QS|                         eps_gvg_rspace:                             3.2E-04
 QS|                         eps_ppl:                                    1.0E-02
 QS|                         eps_ppnl:                                   3.2E-06


 ATOMIC KIND INFORMATION

  1. Atomic kind: O                                     Number of atoms:       1

     Orbital Basis Set                                             DZVP-GTH-PADE

       Number of orbital shell sets:                                           2
       Number of orbital shells:                                               5
       Number of primitive Cartesian functions:                                5
       Number of Cartesian basis functions:                                   14
       Number of spherical basis functions:                                   13
       Norm type:                                                              2

       Normalised Cartesian orbitals:

                        Set   Shell   Orbital            Exponent    Coefficient

                          1       1    2s                8.304404       0.526521
                                                         2.457945      -0.055011
                                                         0.759736      -0.404341
                                                         0.213639      -0.086026

                          1       2    3s                8.304404       0.000000
                                                         2.457945       0.000000
                                                         0.759736       0.000000
                                                         0.213639       0.223960

                          1       3    3px               8.304404      -2.000758
                                                         2.457945      -1.321077
                                                         0.759736      -0.480331
                                                         0.213639      -0.078647
                          1       3    3py               8.304404      -2.000758
                                                         2.457945      -1.321077
                                                         0.759736      -0.480331
                                                         0.213639      -0.078647
                          1       3    3pz               8.304404      -2.000758
                                                         2.457945      -1.321077
                                                         0.759736      -0.480331
                                                         0.213639      -0.078647

                          1       4    4px               8.304404       0.000000
                                                         2.457945       0.000000
                                                         0.759736       0.000000
                                                         0.213639       0.207033
                          1       4    4py               8.304404       0.000000
                                                         2.457945       0.000000
                                                         0.759736       0.000000
                                                         0.213639       0.207033
                          1       4    4pz               8.304404       0.000000
                                                         2.457945       0.000000
                                                         0.759736       0.000000
                                                         0.213639       0.207033

                          2       1    3dx2              0.800000       1.113825
                          2       1    3dxy              0.800000       1.929201
                          2       1    3dxz              0.800000       1.929201
                          2       1    3dy2              0.800000       1.113825
                          2       1    3dyz              0.800000       1.929201
                          2       1    3dz2              0.800000       1.113825

     Potential information for                                       GTH-PADE-q6

       Description:                       Goedecker-Teter-Hutter pseudopotential
                                           Goedecker et al., PRB 54, 1703 (1996)
                                          Hartwigsen et al., PRB 58, 3641 (1998)
                                                      Krack, TCA 114, 145 (2005)

       Gaussian exponent of the core charge distribution:               8.154466
       Electronic configuration (s p d ...):                               2   4

       Parameters of the local part of the GTH pseudopotential:

                          rloc        C1          C2          C3          C4
                        0.247621  -16.580318    2.395701

       Parameters of the non-local part of the GTH pseudopotential:

                   l      r(l)      h(i,j,l)

                   0    0.221786   18.266917
                   1    0.256829

  2. Atomic kind: H                                     Number of atoms:       2

     Orbital Basis Set                                             DZVP-GTH-PADE

       Number of orbital shell sets:                                           2
       Number of orbital shells:                                               3
       Number of primitive Cartesian functions:                                5
       Number of Cartesian basis functions:                                    5
       Number of spherical basis functions:                                    5
       Norm type:                                                              2

       Normalised Cartesian orbitals:

                        Set   Shell   Orbital            Exponent    Coefficient

                          1       1    1s                8.374435      -0.083834
                                                         1.805868      -0.155208
                                                         0.485253      -0.104875
                                                         0.165824      -0.128813

                          1       2    2s                8.374435       0.000000
                                                         1.805868       0.000000
                                                         0.485253       0.000000
                                                         0.165824       0.185202

                          2       1    2px               0.700000       0.912668
                          2       1    2py               0.700000       0.912668
                          2       1    2pz               0.700000       0.912668

     Potential information for                                       GTH-PADE-q1

       Description:                       Goedecker-Teter-Hutter pseudopotential
                                           Goedecker et al., PRB 54, 1703 (1996)
                                          Hartwigsen et al., PRB 58, 3641 (1998)
                                                      Krack, TCA 114, 145 (2005)

       Gaussian exponent of the core charge distribution:              12.500000
       Electronic configuration (s p d ...):                                   1

       Parameters of the local part of the GTH pseudopotential:

                          rloc        C1          C2          C3          C4
                        0.200000   -4.180237    0.725075


 MOLECULE KIND INFORMATION


 All atoms are their own molecule, skipping detailed information


 TOTAL NUMBERS AND MAXIMUM NUMBERS

  Total number of            - Atomic kinds:                                   2
                             - Atoms:                                          3
                             - Shell sets:                                     6
                             - Shells:                                        11
                             - Primitive Cartesian functions:                 15
                             - Cartesian basis functions:                     24
                             - Spherical basis functions:                     23

  Maximum angular momentum of- Orbital basis functions:                        2
                             - Local part of the GTH pseudopotential:          2
                             - Non-local part of the GTH pseudopotential:      0


 MODULE QUICKSTEP:  ATOMIC COORDINATES IN angstrom

  Atom  Kind  Element       X           Y           Z          Z(eff)       Mass

       1     1 O    8   12.235322    1.376642   10.869880      6.00      15.9994
       2     2 H    1   12.415139    2.233125   11.257611      1.00       1.0079
       3     2 H    1   11.922476    1.573799    9.986994      1.00       1.0079




 SCF PARAMETERS         Density guess:                                    ATOMIC
                        --------------------------------------------------------
                        max_scf:                                             200
                        max_scf_history:                                       0
                        max_diis:                                              4
                        --------------------------------------------------------
                        eps_scf:                                        1.00E-05
                        eps_scf_history:                                0.00E+00
                        eps_diis:                                       1.00E-01
                        eps_eigval:                                     1.00E-05
                        --------------------------------------------------------
                        level_shift [a.u.]:                                 0.00
                        --------------------------------------------------------
                        Mixing method:                              PULAY_MIXING
                                                charge density mixing in g-space
                        --------------------------------------------------------
                        No outer SCF

 PW_GRID| Information for grid number                                          1
 PW_GRID| Cutoff [a.u.]                                                     50.0
 PW_GRID| spherical cutoff:                                                   NO
 PW_GRID|   Bounds   1            -37      37                Points:          75
 PW_GRID|   Bounds   2            -37      37                Points:          75
 PW_GRID|   Bounds   3            -37      37                Points:          75
 PW_GRID| Volume element (a.u.^3)  0.3060E-01     Volume (a.u.^3)     12909.5421
 PW_GRID| Grid span                                                    FULLSPACE

 PW_GRID| Information for grid number                                          2
 PW_GRID| Cutoff [a.u.]                                                     16.7
 PW_GRID| spherical cutoff:                                                   NO
 PW_GRID|   Bounds   1            -22      22                Points:          45
 PW_GRID|   Bounds   2            -22      22                Points:          45
 PW_GRID|   Bounds   3            -22      22                Points:          45
 PW_GRID| Volume element (a.u.^3)  0.1417         Volume (a.u.^3)     12909.5421
 PW_GRID| Grid span                                                    FULLSPACE

 PW_GRID| Information for grid number                                          3
 PW_GRID| Cutoff [a.u.]                                                      5.6
 PW_GRID| spherical cutoff:                                                   NO
 PW_GRID|   Bounds   1            -12      12                Points:          25
 PW_GRID|   Bounds   2            -12      12                Points:          25
 PW_GRID|   Bounds   3            -12      12                Points:          25
 PW_GRID| Volume element (a.u.^3)  0.8262         Volume (a.u.^3)     12909.5421
 PW_GRID| Grid span                                                    FULLSPACE

 PW_GRID| Information for grid number                                          4
 PW_GRID| Cutoff [a.u.]                                                      1.9
 PW_GRID| spherical cutoff:                                                   NO
 PW_GRID|   Bounds   1             -7       7                Points:          15
 PW_GRID|   Bounds   2             -7       7                Points:          15
 PW_GRID|   Bounds   3             -7       7                Points:          15
 PW_GRID| Volume element (a.u.^3)   3.825         Volume (a.u.^3)     12909.5421
 PW_GRID| Grid span                                                    FULLSPACE

 POISSON| Solver                                                        PERIODIC
 POISSON| Periodicity                                                        XYZ

 RS_GRID| Information for grid number                                          1
 RS_GRID|   Bounds   1            -37      37                Points:          75
 RS_GRID|   Bounds   2            -37      37                Points:          75
 RS_GRID|   Bounds   3            -37      37                Points:          75

 RS_GRID| Information for grid number                                          2
 RS_GRID|   Bounds   1            -22      22                Points:          45
 RS_GRID|   Bounds   2            -22      22                Points:          45
 RS_GRID|   Bounds   3            -22      22                Points:          45

 RS_GRID| Information for grid number                                          3
 RS_GRID|   Bounds   1            -12      12                Points:          25
 RS_GRID|   Bounds   2            -12      12                Points:          25
 RS_GRID|   Bounds   3            -12      12                Points:          25

 RS_GRID| Information for grid number                                          4
 RS_GRID|   Bounds   1             -7       7                Points:          15
 RS_GRID|   Bounds   2             -7       7                Points:          15
 RS_GRID|   Bounds   3             -7       7                Points:          15

 DISTRIBUTION OF THE PARTICLES (ROWS)
              Process row      Number of particles         Number of matrix rows
                        0                        3                            -1
                      Sum                        3                            -1

 DISTRIBUTION OF THE PARTICLES (COLUMNS)
              Process col      Number of particles      Number of matrix columns
                        0                        3                            -1
                      Sum                        3                            -1

 *******************************************************************************
 ***                     STARTING GEOMETRY OPTIMIZATION                      ***
 ***                                   BFGS                                  ***
 *******************************************************************************

 DISTRIBUTION OF THE NEIGHBOR LISTS
              Total number of particle pairs:                                  6
              Total number of matrix elements:                               374
              Average number of particle pairs:                                6
              Maximum number of particle pairs:                                6
              Average number of matrix element:                              374
              Maximum number of matrix elements:                             374


 DISTRIBUTION OF THE OVERLAP MATRIX
              Number  of non-zero blocks:                                      6
              Percentage non-zero blocks:                                 100.00
              Average number of blocks per CPU:                                6
              Maximum number of blocks per CPU:                                6
              Average number of matrix elements per CPU:                     384
              Maximum number of matrix elements per CPU:                     384

 Number of electrons:                                                          8
 Number of occupied orbitals:                                                  4
 Number of molecular orbitals:                                                 4

 Number of orbital functions:                                                 23
 Number of independent orbital functions:                                     23

 Extrapolation method: initial_guess

 Atomic guess: The first density matrix is obtained in terms of atomic orbitals
               and electronic configurations assigned to each atomic kind

 Guess for atomic kind: O

 Electronic structure
    Total number of core electrons                                          2.00
    Total number of valence electrons                                       6.00
    Total number of electrons                                               8.00
    Multiplicity                                                   not specified
    S   [  2.00] 2.00
    P      4.00


 *******************************************************************************
                  Iteration          Convergence                     Energy [au]
 *******************************************************************************
                          1         1.68085                     -14.857481728656
                          2         2.15642                     -14.936142370053
                          3        0.890654E-01                 -15.701381433081
                          4        0.300038E-02                 -15.702655347039
                          5        0.124050E-02                 -15.702656532555
                          6        0.771851E-03                 -15.702656682204
                          7        0.254544E-04                 -15.702656776553
                          8        0.154783E-06                 -15.702656776662

 Energy components [Hartree]           Total Energy ::          -15.702656776662
                                        Band Energy ::           -2.982159100248
                                     Kinetic Energy ::           11.942300538966
                                   Potential Energy ::          -27.644957315628
                                      Virial (-V/T) ::            2.314877039430
                                        Core Energy ::          -26.240316547129
                                          XC Energy ::           -3.168822356033
                                     Coulomb Energy ::           13.706482126500
                       Total Pseudopotential Energy ::          -38.217120617695
                       Local Pseudopotential Energy ::          -39.522374145046
                    Nonlocal Pseudopotential Energy ::            1.305253527351
                                        Confinement ::            0.345035316001

 Orbital energies  State     L     Occupation   Energy[a.u.]          Energy[eV]

                       1     0          2.000      -0.854038          -23.239548

                       1     1          4.000      -0.318521           -8.667395


 Guess for atomic kind: H

 Electronic structure
    Total number of core electrons                                          0.00
    Total number of valence electrons                                       1.00
    Total number of electrons                                               1.00
    Multiplicity                                                   not specified
    S      1.00


 *******************************************************************************
                  Iteration          Convergence                     Energy [au]
 *******************************************************************************
                          1        0.316011E-02                  -0.422390558413
                          2        0.333152E-03                  -0.422399635530
                          3        0.114302E-06                  -0.422399737491

 Energy components [Hartree]           Total Energy ::           -0.422399737491
                                        Band Energy ::           -0.193019372217
                                     Kinetic Energy ::            0.475009752129
                                   Potential Energy ::           -0.897409489620
                                      Virial (-V/T) ::            1.889244348347
                                        Core Energy ::           -0.478923189740
                                          XC Energy ::           -0.248206713182
                                     Coulomb Energy ::            0.304730165431
                       Total Pseudopotential Energy ::           -0.971460622099
                       Local Pseudopotential Energy ::           -0.971460622099
                    Nonlocal Pseudopotential Energy ::            0.000000000000
                                        Confinement ::            0.175276802303

 Orbital energies  State     L     Occupation   Energy[a.u.]          Energy[eV]

                       1     0          1.000      -0.193019           -5.252324

 Re-scaling the density matrix to get the right number of electrons
                  # Electrons              Trace(P)               Scaling factor
                            8                 8.000                        1.000


 SCF WAVEFUNCTION OPTIMIZATION

  Step     Update method      Time    Convergence         Total energy    Change
  ------------------------------------------------------------------------------

  Trace(PS):                                    8.0000000000
  Electronic density on regular grids:         -8.0000036792       -0.0000036792
  Core density on regular grids:                8.0002817176        0.0002817176
  Total charge density on r-space grids:        0.0002780384
  Total charge density g-space grids:           0.0002780384

     1 NoMix/Diag. 0.50E+00    0.1     1.13047649       -17.0019631348 -1.70E+01

  Trace(PS):                                    8.0000000000
  Electronic density on regular grids:         -7.9998887767        0.0001112233
  Core density on regular grids:                8.0002817176        0.0002817176
  Total charge density on r-space grids:        0.0003929409
  Total charge density g-space grids:           0.0003929409

     2 Pulay/Diag. 0.50E+00    0.2     0.38473426       -15.9278802655  1.07E+00

  Trace(PS):                                    8.0000000000
  Electronic density on regular grids:         -7.9997670154        0.0002329846
  Core density on regular grids:                8.0002817176        0.0002817176
  Total charge density on r-space grids:        0.0005147022
  Total charge density g-space grids:           0.0005147022

     3 Pulay/Diag. 0.50E+00    0.2     0.07793383       -17.4323706972 -1.50E+00

  Trace(PS):                                    8.0000000000
  Electronic density on regular grids:         -7.9997731213        0.0002268787
  Core density on regular grids:                8.0002817176        0.0002817176
  Total charge density on r-space grids:        0.0005085963
  Total charge density g-space grids:           0.0005085963

     4 Pulay/Diag. 0.50E+00    0.2     0.00860113       -17.1491094344  2.83E-01

  Trace(PS):                                    8.0000000000
  Electronic density on regular grids:         -7.9997706989        0.0002293011
  Core density on regular grids:                8.0002817176        0.0002817176
  Total charge density on r-space grids:        0.0005110188
  Total charge density g-space grids:           0.0005110188

     5 Pulay/Diag. 0.50E+00    0.2     0.00397228       -17.1763539146 -2.72E-02

  Trace(PS):                                    8.0000000000
  Electronic density on regular grids:         -7.9997705264        0.0002294736
  Core density on regular grids:                8.0002817176        0.0002817176
  Total charge density on r-space grids:        0.0005111912
  Total charge density g-space grids:           0.0005111912

     6 Pulay/Diag. 0.50E+00    0.2     0.00118787       -17.1538069467  2.25E-02

  Trace(PS):                                    8.0000000000
  Electronic density on regular grids:         -7.9997700852        0.0002299148
  Core density on regular grids:                8.0002817176        0.0002817176
  Total charge density on r-space grids:        0.0005116324
  Total charge density g-space grids:           0.0005116324

     7 Pulay/Diag. 0.50E+00    0.2     0.00058182       -17.1500462631  3.76E-03

  Trace(PS):                                    8.0000000000
  Electronic density on regular grids:         -7.9997697568        0.0002302432
  Core density on regular grids:                8.0002817176        0.0002817176
  Total charge density on r-space grids:        0.0005119608
  Total charge density g-space grids:           0.0005119608

     8 Pulay/Diag. 0.50E+00    0.2     0.00051741       -17.1497234460  3.23E-04

  Trace(PS):                                    8.0000000000
  Electronic density on regular grids:         -7.9997696752        0.0002303248
  Core density on regular grids:                8.0002817176        0.0002817176
  Total charge density on r-space grids:        0.0005120424
  Total charge density g-space grids:           0.0005120424

     9 Pulay/Diag. 0.50E+00    0.2     0.00020949       -17.1488945472  8.29E-04

  Trace(PS):                                    8.0000000000
  Electronic density on regular grids:         -7.9997696145        0.0002303855
  Core density on regular grids:                8.0002817176        0.0002817176
  Total charge density on r-space grids:        0.0005121031
  Total charge density g-space grids:           0.0005121031

    10 Pulay/Diag. 0.50E+00    0.2     0.00007913       -17.1490319035 -1.37E-04

  Trace(PS):                                    8.0000000000
  Electronic density on regular grids:         -7.9997696054        0.0002303946
  Core density on regular grids:                8.0002817176        0.0002817176
  Total charge density on r-space grids:        0.0005121122
  Total charge density g-space grids:           0.0005121122

    11 Pulay/Diag. 0.50E+00    0.2     0.00003440       -17.1488486191  1.83E-04

  Trace(PS):                                    8.0000000000
  Electronic density on regular grids:         -7.9997695916        0.0002304084
  Core density on regular grids:                8.0002817176        0.0002817176
  Total charge density on r-space grids:        0.0005121260
  Total charge density g-space grids:           0.0005121260

    12 Pulay/Diag. 0.50E+00    0.2     0.00001646       -17.1488818860 -3.33E-05

  Trace(PS):                                    8.0000000000
  Electronic density on regular grids:         -7.9997695897        0.0002304103
  Core density on regular grids:                8.0002817176        0.0002817176
  Total charge density on r-space grids:        0.0005121279
  Total charge density g-space grids:           0.0005121279

    13 Pulay/Diag. 0.50E+00    0.2     0.00000459       -17.1488284649  5.34E-05

  *** SCF run converged in    13 steps ***


  Electronic density on regular grids:         -7.9997695897        0.0002304103
  Core density on regular grids:                8.0002817176        0.0002817176
  Total charge density on r-space grids:        0.0005121279
  Total charge density g-space grids:           0.0005121279

  Overlap energy of the core charge distribution:               0.00000008790619
  Self energy of the core charge distribution:                -43.83289054591484
  Core Hamiltonian energy:                                     12.86724943365228
  Hartree energy:                                              17.95658455742420
  Exchange-correlation energy:                                 -4.13977199794821

  Total energy:                                               -17.14882846488038


 MULLIKEN POPULATION ANALYSIS

 #  Atom  Element  Kind  Atomic population                Net charge
       1     O        1          6.650970                 -0.650970
       2     H        2          0.676279                  0.323721
       3     H        2          0.672752                  0.327248
 # Total charge                  8.000000                  0.000000


 !-----------------------------------------------------------------------------!
                           Hirschfeld Charges

  #Atom  Element  Kind  Ref Charge     Population                     Net charge
      1       O      1       6.000          6.557                         -0.557
      2       H      2       1.000          0.722                          0.278
      3       H      2       1.000          0.721                          0.279

  Total Charge                                                             0.000
 !-----------------------------------------------------------------------------!

  Trace(PS):                                    8.0000000000
  Electronic density on regular grids:         -7.9997695888        0.0002304112
  Core density on regular grids:                8.0002817176        0.0002817176
  Total charge density on r-space grids:        0.0005121288
  Total charge density g-space grids:           0.0005121288


 ENERGY| Total FORCE_EVAL ( QS ) energy (a.u.):              -17.148823763526391


 --------  Informations at step =     0 ------------
  Optimization Method        =                 BFGS
  Total Energy               =       -17.1488237635
  Used time                  =                2.391
 ---------------------------------------------------

 --------------------------
 OPTIMIZATION STEP:      1
 --------------------------

 DISTRIBUTION OF THE NEIGHBOR LISTS
              Total number of particle pairs:                                  6
              Total number of matrix elements:                               374
              Average number of particle pairs:                                6
              Maximum number of particle pairs:                                6
              Average number of matrix element:                              374
              Maximum number of matrix elements:                             374


 DISTRIBUTION OF THE OVERLAP MATRIX
              Number  of non-zero blocks:                                      6
              Percentage non-zero blocks:                                 100.00
              Average number of blocks per CPU:                                6
              Maximum number of blocks per CPU:                                6
              Average number of matrix elements per CPU:                     384
              Maximum number of matrix elements per CPU:                     384

 Number of electrons:                                                          8
 Number of occupied orbitals:                                                  4
 Number of molecular orbitals:                                                 4

 Number of orbital functions:                                                 23
 Number of independent orbital functions:                                     23

 Parameters for the always stable predictor-corrector (ASPC) method:

  ASPC order: 0

  B(1) =   1.000000

 Extrapolation method: ASPC


 SCF WAVEFUNCTION OPTIMIZATION

  Step     Update method      Time    Convergence         Total energy    Change
  ------------------------------------------------------------------------------

  Trace(PS):                                    8.0000000000
  Electronic density on regular grids:         -7.9997649822        0.0002350178
  Core density on regular grids:                7.9978404248       -0.0021595752
  Total charge density on r-space grids:       -0.0019245574
  Total charge density g-space grids:          -0.0019245574

     1 Pulay/Diag. 0.50E+00    0.1     0.26543273       -17.1602013078 -1.72E+01

  Trace(PS):                                    8.0000000000
  Electronic density on regular grids:         -7.9998012261        0.0001987739
  Core density on regular grids:                7.9978404248       -0.0021595752
  Total charge density on r-space grids:       -0.0019608013
  Total charge density g-space grids:          -0.0019608013

     2 Pulay/Diag. 0.50E+00    0.2     0.03680192       -17.0425906842  1.18E-01

  Trace(PS):                                    8.0000000000
  Electronic density on regular grids:         -7.9998334925        0.0001665075
  Core density on regular grids:                7.9978404248       -0.0021595752
  Total charge density on r-space grids:       -0.0019930677
  Total charge density g-space grids:          -0.0019930677

     3 Pulay/Diag. 0.50E+00    0.2     0.02322710       -17.1766317918 -1.34E-01

  Trace(PS):                                    8.0000000000
  Electronic density on regular grids:         -7.9998313962        0.0001686038
  Core density on regular grids:                7.9978404248       -0.0021595752
  Total charge density on r-space grids:       -0.0019909714
  Total charge density g-space grids:          -0.0019909714

     4 Pulay/Diag. 0.50E+00    0.2     0.00911545       -17.1383851214  3.82E-02

  Trace(PS):                                    8.0000000000
  Electronic density on regular grids:         -7.9998316529        0.0001683471
  Core density on regular grids:                7.9978404248       -0.0021595752
  Total charge density on r-space grids:       -0.0019912281
  Total charge density g-space grids:          -0.0019912281

     5 Pulay/Diag. 0.50E+00    0.2     0.00079137       -17.1727977004 -3.44E-02

  Trace(PS):                                    8.0000000000
  Electronic density on regular grids:         -7.9998316323        0.0001683677
  Core density on regular grids:                7.9978404248       -0.0021595752
  Total charge density on r-space grids:       -0.0019912075
  Total charge density g-space grids:          -0.0019912075

     6 Pulay/Diag. 0.50E+00    0.2     0.00021021       -17.1708886016  1.91E-03

  Trace(PS):                                    8.0000000000
  Electronic density on regular grids:         -7.9998316289        0.0001683711
  Core density on regular grids:                7.9978404248       -0.0021595752
  Total charge density on r-space grids:       -0.0019912041
  Total charge density g-space grids:          -0.0019912041

     7 Pulay/Diag. 0.50E+00    0.2     0.00007313       -17.1706065566  2.82E-04

  Trace(PS):                                    8.0000000000
  Electronic density on regular grids:         -7.9998316301        0.0001683699
  Core density on regular grids:                7.9978404248       -0.0021595752
  Total charge density on r-space grids:       -0.0019912052
  Total charge density g-space grids:          -0.0019912052

     8 Pulay/Diag. 0.50E+00    0.2     0.00003916       -17.1705513322  5.52E-05

  Trace(PS):                                    8.0000000000
  Electronic density on regular grids:         -7.9998316274        0.0001683726
  Core density on regular grids:                7.9978404248       -0.0021595752
  Total charge density on r-space grids:       -0.0019912026
  Total charge density g-space grids:          -0.0019912026

     9 Pulay/Diag. 0.50E+00    0.2     0.00002439       -17.1705474453  3.89E-06

  Trace(PS):                                    8.0000000000
  Electronic density on regular grids:         -7.9998316276        0.0001683724
  Core density on regular grids:                7.9978404248       -0.0021595752
  Total charge density on r-space grids:       -0.0019912028
  Total charge density g-space grids:          -0.0019912028

    10 Pulay/Diag. 0.50E+00    0.2     0.00000723       -17.1705462579  1.19E-06

  *** SCF run converged in    10 steps ***


  Electronic density on regular grids:         -7.9998316276        0.0001683724
  Core density on regular grids:                7.9978404248       -0.0021595752
  Total charge density on r-space grids:       -0.0019912028
  Total charge density g-space grids:          -0.0019912028

  Overlap energy of the core charge distribution:               0.00000178272142
  Self energy of the core charge distribution:                -43.83289054591484
  Core Hamiltonian energy:                                     13.03096678451514
  Hartree energy:                                              17.81270810157106
  Exchange-correlation energy:                                 -4.18133238076449

  Total energy:                                               -17.17054625787171


 MULLIKEN POPULATION ANALYSIS

 #  Atom  Element  Kind  Atomic population                Net charge
       1     O        1          6.639447                 -0.639447
       2     H        2          0.682366                  0.317634
       3     H        2          0.678187                  0.321813
 # Total charge                  8.000000                  0.000000


 !-----------------------------------------------------------------------------!
                           Hirschfeld Charges

  #Atom  Element  Kind  Ref Charge     Population                     Net charge
      1       O      1       6.000          6.539                         -0.539
      2       H      2       1.000          0.711                          0.289
      3       H      2       1.000          0.750                          0.250

  Total Charge                                                             0.000
 !-----------------------------------------------------------------------------!

  Trace(PS):                                    8.0000000000
  Electronic density on regular grids:         -7.9998316276        0.0001683724
  Core density on regular grids:                7.9978404248       -0.0021595752
  Total charge density on r-space grids:       -0.0019912028
  Total charge density g-space grids:          -0.0019912028


 ENERGY| Total FORCE_EVAL ( QS ) energy (a.u.):              -17.170562939934371


 --------  Informations at step =     1 ------------
  Optimization Method        =                 BFGS
  Total Energy               =       -17.1705629399
  Real energy change         =        -0.0217391764
  Predicted change in energy =        -0.0290120846
  Scaling factor             =         0.0000000000
  Step size                  =         0.3587860823
  Trust radius               =         0.4724315332
  Decrease in energy         =                  YES
  Used time                  =                1.800

  Convergence check :
  Max. step size             =         0.3587860823
  Conv. limit for step size  =         0.0010000000
  Convergence in step size   =                   NO
  RMS step size              =         0.1578202927
  Conv. limit for RMS step   =         0.0010000000
  Convergence in RMS step    =                   NO
  Max. gradient              =         0.1905363788
  Conv. limit for gradients  =         0.0010000000
  Conv. for gradients        =                   NO
  RMS gradient               =         0.1217401491
  Conv. limit for RMS grad.  =         0.0010000000
  Conv. for gradients        =                   NO
 ---------------------------------------------------

 --------------------------
 OPTIMIZATION STEP:      2
 --------------------------

  Step is scaled; Scaling factor =  0.04001

 DISTRIBUTION OF THE NEIGHBOR LISTS
              Total number of particle pairs:                                  6
              Total number of matrix elements:                               374
              Average number of particle pairs:                                6
              Maximum number of particle pairs:                                6
              Average number of matrix element:                              374
              Maximum number of matrix elements:                             374


 DISTRIBUTION OF THE OVERLAP MATRIX
              Number  of non-zero blocks:                                      6
              Percentage non-zero blocks:                                 100.00
              Average number of blocks per CPU:                                6
              Maximum number of blocks per CPU:                                6
              Average number of matrix elements per CPU:                     384
              Maximum number of matrix elements per CPU:                     384

 Number of electrons:                                                          8
 Number of occupied orbitals:                                                  4
 Number of molecular orbitals:                                                 4

 Number of orbital functions:                                                 23
 Number of independent orbital functions:                                     23

 Parameters for the always stable predictor-corrector (ASPC) method:

  ASPC order: 0

  B(1) =   2.000000
  B(2) =  -1.000000

 Extrapolation method: ASPC


 SCF WAVEFUNCTION OPTIMIZATION

  Step     Update method      Time    Convergence         Total energy    Change
  ------------------------------------------------------------------------------

  Trace(PS):                                    8.0000000000
  Electronic density on regular grids:         -8.0000200176       -0.0000200176
  Core density on regular grids:                8.0020374438        0.0020374438
  Total charge density on r-space grids:        0.0020174262
  Total charge density g-space grids:           0.0020174262

     1 Pulay/Diag. 0.50E+00    0.1     0.30734479       -17.0814652576 -1.71E+01

  Trace(PS):                                    8.0000000000
  Electronic density on regular grids:         -7.9999963904        0.0000036096
  Core density on regular grids:                8.0020374438        0.0020374438
  Total charge density on r-space grids:        0.0020410534
  Total charge density g-space grids:           0.0020410534

     2 Pulay/Diag. 0.50E+00    0.1     0.05558828       -17.2450409688 -1.64E-01

  Trace(PS):                                    8.0000000000
  Electronic density on regular grids:         -7.9999768685        0.0000231315
  Core density on regular grids:                8.0020374438        0.0020374438
  Total charge density on r-space grids:        0.0020605754
  Total charge density g-space grids:           0.0020605754

     3 Pulay/Diag. 0.50E+00    0.2     0.02297701       -17.0598066662  1.85E-01

  Trace(PS):                                    8.0000000000
  Electronic density on regular grids:         -7.9999789494        0.0000210506
  Core density on regular grids:                8.0020374438        0.0020374438
  Total charge density on r-space grids:        0.0020584944
  Total charge density g-space grids:           0.0020584944

     4 Pulay/Diag. 0.50E+00    0.2     0.00691951       -17.1091877110 -4.94E-02

  Trace(PS):                                    8.0000000000
  Electronic density on regular grids:         -7.9999784875        0.0000215125
  Core density on regular grids:                8.0020374438        0.0020374438
  Total charge density on r-space grids:        0.0020589563
  Total charge density g-space grids:           0.0020589563

     5 Pulay/Diag. 0.50E+00    0.2     0.00084259       -17.0885489414  2.06E-02

  Trace(PS):                                    8.0000000000
  Electronic density on regular grids:         -7.9999785250        0.0000214750
  Core density on regular grids:                8.0020374438        0.0020374438
  Total charge density on r-space grids:        0.0020589188
  Total charge density g-space grids:           0.0020589188

     6 Pulay/Diag. 0.50E+00    0.2     0.00012057       -17.0903993599 -1.85E-03

  Trace(PS):                                    8.0000000000
  Electronic density on regular grids:         -7.9999785383        0.0000214617
  Core density on regular grids:                8.0020374438        0.0020374438
  Total charge density on r-space grids:        0.0020589055
  Total charge density g-space grids:           0.0020589055

     7 Pulay/Diag. 0.50E+00    0.2     0.00003950       -17.0908160073 -4.17E-04

  Trace(PS):                                    8.0000000000
  Electronic density on regular grids:         -7.9999785432        0.0000214568
  Core density on regular grids:                8.0020374438        0.0020374438
  Total charge density on r-space grids:        0.0020589006
  Total charge density g-space grids:           0.0020589006

     8 Pulay/Diag. 0.50E+00    0.2     0.00001829       -17.0909145152 -9.85E-05

  Trace(PS):                                    8.0000000000
  Electronic density on regular grids:         -7.9999785546        0.0000214454
  Core density on regular grids:                8.0020374438        0.0020374438
  Total charge density on r-space grids:        0.0020588892
  Total charge density g-space grids:           0.0020588892

     9 Pulay/Diag. 0.50E+00    0.2     0.00002039       -17.0909183502 -3.84E-06

  Trace(PS):                                    8.0000000000
  Electronic density on regular grids:         -7.9999785564        0.0000214436
  Core density on regular grids:                8.0020374438        0.0020374438
  Total charge density on r-space grids:        0.0020588874
  Total charge density g-space grids:           0.0020588874

    10 Pulay/Diag. 0.50E+00    0.2     0.00001099       -17.0909423928 -2.40E-05

  Trace(PS):                                    8.0000000000
  Electronic density on regular grids:         -7.9999785576        0.0000214424
  Core density on regular grids:                8.0020374438        0.0020374438
  Total charge density on r-space grids:        0.0020588862
  Total charge density g-space grids:           0.0020588862

    11 Pulay/Diag. 0.50E+00    0.2     0.00000381       -17.0909128182  2.96E-05

  *** SCF run converged in    11 steps ***


  Electronic density on regular grids:         -7.9999785576        0.0000214424
  Core density on regular grids:                8.0020374438        0.0020374438
  Total charge density on r-space grids:        0.0020588862
  Total charge density g-space grids:           0.0020588862

  Overlap energy of the core charge distribution:               0.00000280712474
  Self energy of the core charge distribution:                -43.83289054591484
  Core Hamiltonian energy:                                     12.98909030271759
  Hartree energy:                                              17.91998725613453
  Exchange-correlation energy:                                 -4.16710263821790

  Total energy:                                               -17.09091281815588


 MULLIKEN POPULATION ANALYSIS

 #  Atom  Element  Kind  Atomic population                Net charge
       1     O        1          6.599376                 -0.599376
       2     H        2          0.705574                  0.294426
       3     H        2          0.695050                  0.304950
 # Total charge                  8.000000                  0.000000


 !-----------------------------------------------------------------------------!
                           Hirschfeld Charges

  #Atom  Element  Kind  Ref Charge     Population                     Net charge
      1       O      1       6.000          6.531                         -0.531
      2       H      2       1.000          0.707                          0.293
      3       H      2       1.000          0.762                          0.238

  Total Charge                                                             0.000
 !-----------------------------------------------------------------------------!

  Trace(PS):                                    8.0000000000
  Electronic density on regular grids:         -7.9999785580        0.0000214420
  Core density on regular grids:                8.0020374438        0.0020374438
  Total charge density on r-space grids:        0.0020588858
  Total charge density g-space grids:           0.0020588858


 ENERGY| Total FORCE_EVAL ( QS ) energy (a.u.):              -17.090918338927164


 --------  Informations at step =     2 ------------
  Optimization Method        =                 BFGS
  Total Energy               =       -17.0909183389
  Real energy change         =         0.0796446010
  Predicted change in energy =        -0.0712723635
  Scaling factor             =         0.0400129839
  Step size                  =         0.4724315332
  Trust radius               =         0.4724315332
  Decrease in energy         =                   NO
  Used time                  =                2.014

  Convergence check :
  Max. step size             =         0.4724315332
  Conv. limit for step size  =         0.0010000000
  Convergence in step size   =                   NO
  RMS step size              =         0.2292260392
  Conv. limit for RMS step   =         0.0010000000
  Convergence in RMS step    =                   NO
  Max. gradient              =         0.3699936172
  Conv. limit for gradients  =         0.0010000000
  Conv. for gradients        =                   NO
  RMS gradient               =         0.1771455339
  Conv. limit for RMS grad.  =         0.0010000000
  Conv. for gradients        =                   NO
 ---------------------------------------------------

 --------------------------
 OPTIMIZATION STEP:      3
 --------------------------

  Step is scaled; Scaling factor =  0.00026

 DISTRIBUTION OF THE NEIGHBOR LISTS
              Total number of particle pairs:                                  6
              Total number of matrix elements:                               374
              Average number of particle pairs:                                6
              Maximum number of particle pairs:                                6
              Average number of matrix element:                              374
              Maximum number of matrix elements:                             374


 DISTRIBUTION OF THE OVERLAP MATRIX
              Number  of non-zero blocks:                                      6
              Percentage non-zero blocks:                                 100.00
              Average number of blocks per CPU:                                6
              Maximum number of blocks per CPU:                                6
              Average number of matrix elements per CPU:                     384
              Maximum number of matrix elements per CPU:                     384

 Number of electrons:                                                          8
 Number of occupied orbitals:                                                  4
 Number of molecular orbitals:                                                 4

 Number of orbital functions:                                                 23
 Number of independent orbital functions:                                     23

 Parameters for the always stable predictor-corrector (ASPC) method:

  ASPC order: 1

  B(1) =   2.500000
  B(2) =  -2.000000
  B(3) =   0.500000

 Extrapolation method: ASPC


 SCF WAVEFUNCTION OPTIMIZATION

  Step     Update method      Time    Convergence         Total energy    Change
  ------------------------------------------------------------------------------

  Trace(PS):                                    8.0000000000
  Electronic density on regular grids:         -8.0000715318       -0.0000715318
  Core density on regular grids:                8.0009718642        0.0009718642
  Total charge density on r-space grids:        0.0009003323
  Total charge density g-space grids:           0.0009003323

     1 Pulay/Diag. 0.50E+00    0.1     0.66723466       -17.0949539104 -1.71E+01

  Trace(PS):                                    8.0000000000
  Electronic density on regular grids:         -8.0000516911       -0.0000516911
  Core density on regular grids:                8.0009718642        0.0009718642
  Total charge density on r-space grids:        0.0009201730
  Total charge density g-space grids:           0.0009201730

     2 Pulay/Diag. 0.50E+00    0.2     0.08531625       -17.1079033260 -1.29E-02

  Trace(PS):                                    8.0000000000
  Electronic density on regular grids:         -8.0000433315       -0.0000433315
  Core density on regular grids:                8.0009718642        0.0009718642
  Total charge density on r-space grids:        0.0009285327
  Total charge density g-space grids:           0.0009285327

     3 Pulay/Diag. 0.50E+00    0.2     0.03828991       -17.1099958000 -2.09E-03

  Trace(PS):                                    8.0000000000
  Electronic density on regular grids:         -8.0000464511       -0.0000464511
  Core density on regular grids:                8.0009718642        0.0009718642
  Total charge density on r-space grids:        0.0009254130
  Total charge density g-space grids:           0.0009254130

     4 Pulay/Diag. 0.50E+00    0.2     0.03049863       -16.9984390678  1.12E-01

  Trace(PS):                                    8.0000000000
  Electronic density on regular grids:         -8.0000451535       -0.0000451535
  Core density on regular grids:                8.0009718642        0.0009718642
  Total charge density on r-space grids:        0.0009267107
  Total charge density g-space grids:           0.0009267107

     5 Pulay/Diag. 0.50E+00    0.2     0.00135383       -17.1331234138 -1.35E-01

  Trace(PS):                                    8.0000000000
  Electronic density on regular grids:         -8.0000452803       -0.0000452803
  Core density on regular grids:                8.0009718642        0.0009718642
  Total charge density on r-space grids:        0.0009265839
  Total charge density g-space grids:           0.0009265839

     6 Pulay/Diag. 0.50E+00    0.2     0.00040590       -17.1273909140  5.73E-03

  Trace(PS):                                    8.0000000000
  Electronic density on regular grids:         -8.0000452404       -0.0000452404
  Core density on regular grids:                8.0009718642        0.0009718642
  Total charge density on r-space grids:        0.0009266238
  Total charge density g-space grids:           0.0009266238

     7 Pulay/Diag. 0.50E+00    0.2     0.00004754       -17.1275703107 -1.79E-04

  Trace(PS):                                    8.0000000000
  Electronic density on regular grids:         -8.0000452281       -0.0000452281
  Core density on regular grids:                8.0009718642        0.0009718642
  Total charge density on r-space grids:        0.0009266361
  Total charge density g-space grids:           0.0009266361

     8 Pulay/Diag. 0.50E+00    0.2     0.00010802       -17.1275017932  6.85E-05

  Trace(PS):                                    8.0000000000
  Electronic density on regular grids:         -8.0000452204       -0.0000452204
  Core density on regular grids:                8.0009718642        0.0009718642
  Total charge density on r-space grids:        0.0009266437
  Total charge density g-space grids:           0.0009266437

     9 Pulay/Diag. 0.50E+00    0.2     0.00002073       -17.1274510034  5.08E-05

  Trace(PS):                                    8.0000000000
  Electronic density on regular grids:         -8.0000452157       -0.0000452157
  Core density on regular grids:                8.0009718642        0.0009718642
  Total charge density on r-space grids:        0.0009266484
  Total charge density g-space grids:           0.0009266484

    10 Pulay/Diag. 0.50E+00    0.2     0.00002745       -17.1274058713  4.51E-05

  Trace(PS):                                    8.0000000000
  Electronic density on regular grids:         -8.0000452103       -0.0000452103
  Core density on regular grids:                8.0009718642        0.0009718642
  Total charge density on r-space grids:        0.0009266539
  Total charge density g-space grids:           0.0009266539

    11 Pulay/Diag. 0.50E+00    0.2     0.00000938       -17.1274597572 -5.39E-05

  *** SCF run converged in    11 steps ***


  Electronic density on regular grids:         -8.0000452103       -0.0000452103
  Core density on regular grids:                8.0009718642        0.0009718642
  Total charge density on r-space grids:        0.0009266539
  Total charge density g-space grids:           0.0009266539

  Overlap energy of the core charge distribution:               0.00000000628988
  Self energy of the core charge distribution:                -43.83289054591484
  Core Hamiltonian energy:                                     12.65595998946919
  Hartree energy:                                              18.12641709635516
  Exchange-correlation energy:                                 -4.07694630335847

  Total energy:                                               -17.12745975715908


 MULLIKEN POPULATION ANALYSIS

 #  Atom  Element  Kind  Atomic population                Net charge
       1     O        1          6.571559                 -0.571559
       2     H        2          0.704236                  0.295764
       3     H        2          0.724205                  0.275795
 # Total charge                  8.000000                 -0.000000


 !-----------------------------------------------------------------------------!
                           Hirschfeld Charges

  #Atom  Element  Kind  Ref Charge     Population                     Net charge
      1       O      1       6.000          6.538                         -0.538
      2       H      2       1.000          0.724                          0.276
      3       H      2       1.000          0.738                          0.262

  Total Charge                                                             0.000
 !-----------------------------------------------------------------------------!

  Trace(PS):                                    8.0000000000
  Electronic density on regular grids:         -8.0000452116       -0.0000452116
  Core density on regular grids:                8.0009718642        0.0009718642
  Total charge density on r-space grids:        0.0009266526
  Total charge density g-space grids:           0.0009266526


 ENERGY| Total FORCE_EVAL ( QS ) energy (a.u.):              -17.127419398524218


 --------  Informations at step =     3 ------------
  Optimization Method        =                 BFGS
  Total Energy               =       -17.1274193985
  Real energy change         =        -0.0365010596
  Predicted change in energy =        -0.2793268325
  Scaling factor             =         0.0002636219
  Step size                  =         0.4724315332
  Trust radius               =         0.4724315332
  Decrease in energy         =                   NO
  Used time                  =                2.073

  Convergence check :
  Max. step size             =         0.4724315332
  Conv. limit for step size  =         0.0010000000
  Convergence in step size   =                   NO
  RMS step size              =         0.2295034460
  Conv. limit for RMS step   =         0.0010000000
  Convergence in RMS step    =                   NO
  Max. gradient              =         0.2215878897
  Conv. limit for gradients  =         0.0010000000
  Conv. for gradients        =                   NO
  RMS gradient               =         0.1308415706
  Conv. limit for RMS grad.  =         0.0010000000
  Conv. for gradients        =                   NO
 ---------------------------------------------------

 --------------------------
 OPTIMIZATION STEP:      4
 --------------------------

  Step is scaled; Scaling factor =  0.18410

 DISTRIBUTION OF THE NEIGHBOR LISTS
              Total number of particle pairs:                                  6
              Total number of matrix elements:                               374
              Average number of particle pairs:                                6
              Maximum number of particle pairs:                                6
              Average number of matrix element:                              374
              Maximum number of matrix elements:                             374


 DISTRIBUTION OF THE OVERLAP MATRIX
              Number  of non-zero blocks:                                      6
              Percentage non-zero blocks:                                 100.00
              Average number of blocks per CPU:                                6
              Maximum number of blocks per CPU:                                6
              Average number of matrix elements per CPU:                     384
              Maximum number of matrix elements per CPU:                     384

 Number of electrons:                                                          8
 Number of occupied orbitals:                                                  4
 Number of molecular orbitals:                                                 4

 Number of orbital functions:                                                 23
 Number of independent orbital functions:                                     23

 Parameters for the always stable predictor-corrector (ASPC) method:

  ASPC order: 2

  B(1) =   2.800000
  B(2) =  -2.800000
  B(3) =   1.200000
  B(4) =  -0.200000

 Extrapolation method: ASPC


 SCF WAVEFUNCTION OPTIMIZATION

  Step     Update method      Time    Convergence         Total energy    Change
  ------------------------------------------------------------------------------

  Trace(PS):                                    8.0000000000
  Electronic density on regular grids:         -8.0000875651       -0.0000875651
  Core density on regular grids:                8.0018324205        0.0018324205
  Total charge density on r-space grids:        0.0017448554
  Total charge density g-space grids:           0.0017448554

     1 Pulay/Diag. 0.50E+00    0.1     0.56599129       -17.0280837433 -1.70E+01

  Trace(PS):                                    8.0000000000
  Electronic density on regular grids:         -8.0001169287       -0.0001169287
  Core density on regular grids:                8.0018324205        0.0018324205
  Total charge density on r-space grids:        0.0017154918
  Total charge density g-space grids:           0.0017154918

     2 Pulay/Diag. 0.50E+00    0.2     0.13843923       -16.7505618555  2.78E-01

  Trace(PS):                                    8.0000000000
  Electronic density on regular grids:         -8.0001378717       -0.0001378717
  Core density on regular grids:                8.0018324205        0.0018324205
  Total charge density on r-space grids:        0.0016945487
  Total charge density g-space grids:           0.0016945487

     3 Pulay/Diag. 0.50E+00    0.2     0.07002501       -17.2512447833 -5.01E-01

  Trace(PS):                                    8.0000000000
  Electronic density on regular grids:         -8.0001295304       -0.0001295304
  Core density on regular grids:                8.0018324205        0.0018324205
  Total charge density on r-space grids:        0.0017028901
  Total charge density g-space grids:           0.0017028901

     4 Pulay/Diag. 0.50E+00    0.2     0.02438247       -17.0188027338  2.32E-01

  Trace(PS):                                    8.0000000000
  Electronic density on regular grids:         -8.0001312679       -0.0001312679
  Core density on regular grids:                8.0018324205        0.0018324205
  Total charge density on r-space grids:        0.0017011526
  Total charge density g-space grids:           0.0017011526

     5 Pulay/Diag. 0.50E+00    0.2     0.00265504       -17.1022269223 -8.34E-02

  Trace(PS):                                    8.0000000000
  Electronic density on regular grids:         -8.0001311022       -0.0001311022
  Core density on regular grids:                8.0018324205        0.0018324205
  Total charge density on r-space grids:        0.0017013183
  Total charge density g-space grids:           0.0017013183

     6 Pulay/Diag. 0.50E+00    0.2     0.00129644       -17.0965622730  5.66E-03

  Trace(PS):                                    8.0000000000
  Electronic density on regular grids:         -8.0001311097       -0.0001311097
  Core density on regular grids:                8.0018324205        0.0018324205
  Total charge density on r-space grids:        0.0017013108
  Total charge density g-space grids:           0.0017013108

     7 Pulay/Diag. 0.50E+00    0.2     0.00025351       -17.0942748398  2.29E-03

  Trace(PS):                                    8.0000000000
  Electronic density on regular grids:         -8.0001311185       -0.0001311185
  Core density on regular grids:                8.0018324205        0.0018324205
  Total charge density on r-space grids:        0.0017013019
  Total charge density g-space grids:           0.0017013019

     8 Pulay/Diag. 0.50E+00    0.2     0.00014974       -17.0937150023  5.60E-04

  Trace(PS):                                    8.0000000000
  Electronic density on regular grids:         -8.0001311177       -0.0001311177
  Core density on regular grids:                8.0018324205        0.0018324205
  Total charge density on r-space grids:        0.0017013028
  Total charge density g-space grids:           0.0017013028

     9 Pulay/Diag. 0.50E+00    0.2     0.00011786       -17.0938250396 -1.10E-04

  Trace(PS):                                    8.0000000000
  Electronic density on regular grids:         -8.0001311190       -0.0001311190
  Core density on regular grids:                8.0018324205        0.0018324205
  Total charge density on r-space grids:        0.0017013014
  Total charge density g-space grids:           0.0017013014

    10 Pulay/Diag. 0.50E+00    0.2     0.00004931       -17.0936766677  1.48E-04

  Trace(PS):                                    8.0000000000
  Electronic density on regular grids:         -8.0001311216       -0.0001311216
  Core density on regular grids:                8.0018324205        0.0018324205
  Total charge density on r-space grids:        0.0017012989
  Total charge density g-space grids:           0.0017012989

    11 Pulay/Diag. 0.50E+00    0.2     0.00001998       -17.0937940027 -1.17E-04

  Trace(PS):                                    8.0000000000
  Electronic density on regular grids:         -8.0001311205       -0.0001311205
  Core density on regular grids:                8.0018324205        0.0018324205
  Total charge density on r-space grids:        0.0017013000
  Total charge density g-space grids:           0.0017013000

    12 Pulay/Diag. 0.50E+00    0.2     0.00001056       -17.0937528229  4.12E-05

  Trace(PS):                                    8.0000000000
  Electronic density on regular grids:         -8.0001311213       -0.0001311213
  Core density on regular grids:                8.0018324205        0.0018324205
  Total charge density on r-space grids:        0.0017012992
  Total charge density g-space grids:           0.0017012992

    13 Pulay/Diag. 0.50E+00    0.2     0.00000347       -17.0937690627 -1.62E-05

  *** SCF run converged in    13 steps ***


  Electronic density on regular grids:         -8.0001311213       -0.0001311213
[...]
  Core Hamiltonian energy:                                     12.67910441296748
  Hartree energy:                                              18.03232137478929
  Exchange-correlation energy:                                 -4.07607143188833

  Total energy:                                               -17.19753618593396


 MULLIKEN POPULATION ANALYSIS

 #  Atom  Element  Kind  Atomic population                Net charge
       1     O        1          6.710386                 -0.710386
       2     H        2          0.650161                  0.349839
       3     H        2          0.639453                  0.360547
 # Total charge                  8.000000                 -0.000000


 !-----------------------------------------------------------------------------!
                           Hirschfeld Charges

  #Atom  Element  Kind  Ref Charge     Population                     Net charge
      1       O      1       6.000          6.616                         -0.616
      2       H      2       1.000          0.695                          0.305
      3       H      2       1.000          0.689                          0.311

  Total Charge                                                            -0.000
 !-----------------------------------------------------------------------------!

  Trace(PS):                                    8.0000000000
  Electronic density on regular grids:         -8.0001960791       -0.0001960791
  Core density on regular grids:                7.9963271191       -0.0036728809
  Total charge density on r-space grids:       -0.0038689600
  Total charge density g-space grids:          -0.0038689600


 ENERGY| Total FORCE_EVAL ( QS ) energy (a.u.):              -17.197522662281731


 --------  Informations at step =    34 ------------
  Optimization Method        =                 BFGS
  Total Energy               =       -17.1975226623
  Real energy change         =        -0.0000001230
  Predicted change in energy =        -0.0000001339
  Scaling factor             =         0.0013518958
  Step size                  =         0.0002088588
  Trust radius               =         0.4724315332
  Decrease in energy         =                  YES
  Used time                  =                1.299

  Convergence check :
  Max. step size             =         0.0002088588
  Conv. limit for step size  =         0.0010000000
  Convergence in step size   =                  YES
  RMS step size              =         0.0000888291
  Conv. limit for RMS step   =         0.0010000000
  Convergence in RMS step    =                  YES
  Max. gradient              =         0.0001085056
  Conv. limit for gradients  =         0.0010000000
  Conv. in gradients         =                  YES
  RMS gradient               =         0.0000431249
  Conv. limit for RMS grad.  =         0.0010000000
  Conv. in RMS gradients     =                  YES
 ---------------------------------------------------

 *******************************************************************************
 ***                    GEOMETRY OPTIMIZATION COMPLETED                      ***
 *******************************************************************************

                    Reevaluating energy at the minimum

 DISTRIBUTION OF THE NEIGHBOR LISTS
              Total number of particle pairs:                                  6
              Total number of matrix elements:                               374
              Average number of particle pairs:                                6
              Maximum number of particle pairs:                                6
              Average number of matrix element:                              374
              Maximum number of matrix elements:                             374


 DISTRIBUTION OF THE OVERLAP MATRIX
              Number  of non-zero blocks:                                      6
              Percentage non-zero blocks:                                 100.00
              Average number of blocks per CPU:                                6
              Maximum number of blocks per CPU:                                6
              Average number of matrix elements per CPU:                     384
              Maximum number of matrix elements per CPU:                     384

 Number of electrons:                                                          8
 Number of occupied orbitals:                                                  4
 Number of molecular orbitals:                                                 4

 Number of orbital functions:                                                 23
 Number of independent orbital functions:                                     23

 Parameters for the always stable predictor-corrector (ASPC) method:

  ASPC order: 3

  B(1) =   3.000000
  B(2) =  -3.428571
  B(3) =   1.928571
  B(4) =  -0.571429
  B(5) =   0.071429

 Extrapolation method: ASPC


 SCF WAVEFUNCTION OPTIMIZATION

  Step     Update method      Time    Convergence         Total energy    Change
  ------------------------------------------------------------------------------

  Trace(PS):                                    8.0000000000
  Electronic density on regular grids:         -8.0001984643       -0.0001984643
  Core density on regular grids:                7.9963271191       -0.0036728809
  Total charge density on r-space grids:       -0.0038713452
  Total charge density g-space grids:          -0.0038713452

     1 Pulay/Diag. 0.50E+00    0.1     0.01067025       -17.1975063580 -1.72E+01

  Trace(PS):                                    8.0000000000
  Electronic density on regular grids:         -8.0001970551       -0.0001970551
  Core density on regular grids:                7.9963271191       -0.0036728809
  Total charge density on r-space grids:       -0.0038699360
  Total charge density g-space grids:          -0.0038699360

     2 Pulay/Diag. 0.50E+00    0.1     0.00272282       -17.2056719273 -8.17E-03

  Trace(PS):                                    8.0000000000
  Electronic density on regular grids:         -8.0001960559       -0.0001960559
  Core density on regular grids:                7.9963271191       -0.0036728809
  Total charge density on r-space grids:       -0.0038689368
  Total charge density g-space grids:          -0.0038689368

     3 Pulay/Diag. 0.50E+00    0.2     0.00139620       -17.1956486653  1.00E-02

  Trace(PS):                                    8.0000000000
  Electronic density on regular grids:         -8.0001960471       -0.0001960471
  Core density on regular grids:                7.9963271191       -0.0036728809
  Total charge density on r-space grids:       -0.0038689280
  Total charge density g-space grids:          -0.0038689280

     4 Pulay/Diag. 0.50E+00    0.2     0.00051912       -17.1989947305 -3.35E-03

  Trace(PS):                                    8.0000000000
  Electronic density on regular grids:         -8.0001960676       -0.0001960676
  Core density on regular grids:                7.9963271191       -0.0036728809
  Total charge density on r-space grids:       -0.0038689485
  Total charge density g-space grids:          -0.0038689485

     5 Pulay/Diag. 0.50E+00    0.2     0.00005112       -17.1973662062  1.63E-03

  Trace(PS):                                    8.0000000000
  Electronic density on regular grids:         -8.0001960725       -0.0001960725
  Core density on regular grids:                7.9963271191       -0.0036728809
  Total charge density on r-space grids:       -0.0038689534
  Total charge density g-space grids:          -0.0038689534

     6 Pulay/Diag. 0.50E+00    0.2     0.00001123       -17.1974893176 -1.23E-04

  Trace(PS):                                    8.0000000000
  Electronic density on regular grids:         -8.0001960749       -0.0001960749
  Core density on regular grids:                7.9963271191       -0.0036728809
  Total charge density on r-space grids:       -0.0038689558
  Total charge density g-space grids:          -0.0038689558

     7 Pulay/Diag. 0.50E+00    0.2     0.00000378       -17.1975185135 -2.92E-05

  *** SCF run converged in     7 steps ***


  Electronic density on regular grids:         -8.0001960749       -0.0001960749
  Core density on regular grids:                7.9963271191       -0.0036728809
  Total charge density on r-space grids:       -0.0038689558
  Total charge density g-space grids:          -0.0038689558

  Overlap energy of the core charge distribution:               0.00000000411243
  Self energy of the core charge distribution:                -43.83289054591484
  Core Hamiltonian energy:                                     12.67911209460724
  Hartree energy:                                              18.03233464067205
  Exchange-correlation energy:                                 -4.07607470697717

  Total energy:                                               -17.19751851350028


 MULLIKEN POPULATION ANALYSIS

 #  Atom  Element  Kind  Atomic population                Net charge
       1     O        1          6.710371                 -0.710371
       2     H        2          0.650166                  0.349834
       3     H        2          0.639463                  0.360537
 # Total charge                  8.000000                 -0.000000


 !-----------------------------------------------------------------------------!
                           Hirschfeld Charges

  #Atom  Element  Kind  Ref Charge     Population                     Net charge
      1       O      1       6.000          6.616                         -0.616
      2       H      2       1.000          0.695                          0.305
      3       H      2       1.000          0.689                          0.311

  Total Charge                                                            -0.000
 !-----------------------------------------------------------------------------!

 ENERGY| Total FORCE_EVAL ( QS ) energy (a.u.):              -17.197518513500277


 -------------------------------------------------------------------------------
 -                                                                             -
 -                                DBCSR STATISTICS                             -
 -                                                                             -
 -------------------------------------------------------------------------------
 COUNTER                                      CPU                  ACC      ACC%
 number of processed stacks                  2328                    0       0.0
 matmuls inhomo. stacks                         0                    0       0.0
 matmuls total                               3882                    0       0.0
 flops   5 x    4 x    5                   104000                    0       0.0
 flops  13 x    4 x    5                   135200                    0       0.0
 flops   5 x    4 x   13                   135200                    0       0.0
 flops  13 x    4 x   13                   175760                    0       0.0
 flops  13 x    5 x    4                   235040                    0       0.0
 flops   5 x   13 x    4                   235040                    0       0.0
 flops   5 x    5 x    4                   271200                    0       0.0
 flops  13 x   13 x    4                   611104                    0       0.0
 flops total                              1902544                    0       0.0
 marketing flops                          2463024
 -------------------------------------------------------------------------------

 -------------------------------------------------------------------------------
 ----                             MULTIGRID INFO                            ----
 -------------------------------------------------------------------------------
 count for grid        1:           6296          cutoff [a.u.]           50.00
 count for grid        2:           1672          cutoff [a.u.]           16.67
 count for grid        3:            172          cutoff [a.u.]            5.56
 count for grid        4:              0          cutoff [a.u.]            1.85
 total gridlevel count  :           8140

 -------------------------------------------------------------------------------
 -                                                                             -
 -                         MESSAGE PASSING PERFORMANCE                         -
 -                                                                             -
 -------------------------------------------------------------------------------

 ROUTINE             CALLS  TOT TIME [s]  AVE VOLUME [Bytes]  PERFORMANCE [MB/s]
 MP_Group                5         0.000
 MP_Bcast              425         0.000                  4.                4.29
 MP_Allreduce         6079         0.007                 17.               14.87
 MP_Sync                 4         0.000
 MP_Alltoall          9319         0.006                834.             1269.40
 MP_Wait             13968         0.004
 MP_ISend             4656         0.005               1200.             1025.58
 MP_IRecv             4656         0.002               1200.             2236.02
 MP_Memory           13448         0.005
 -------------------------------------------------------------------------------


 -------------------------------------------------------------------------------
 -                                                                             -
 -                           R E F E R E N C E S                               -
 -                                                                             -
 -------------------------------------------------------------------------------
 
 CP2K version 2.6.2, the CP2K developers group (2015).
 CP2K is freely available from http://www.cp2k.org/ .

 Borstnik, U; VandeVondele, J; Weber, V; Hutter, J. 
 PARALLEL COMPUTING, 40 (5-6), 47-58 (2014). 
 Sparse matrix multiplication: The distributed block-compressed sparse
 row library.
 http://dx.doi.org/10.1016/j.parco.2014.03.012


 Hutter, J; Iannuzzi, M; Schiffmann, F; VandeVondele, J. 
 WILEY INTERDISCIPLINARY REVIEWS-COMPUTATIONAL MOLECULAR SCIENCE, 4 (1), 15-25 (2014). 
 CP2K: atomistic simulations of condensed matter systems.
 http://dx.doi.org/10.1002/wcms.1159


 Krack, M. 
 THEORETICAL CHEMISTRY ACCOUNTS, 114 (1-3), 145-152 (2005). 
 Pseudopotentials for H to Kr optimized for gradient-corrected
 exchange-correlation functionals.
 http://dx.doi.org/10.1007/s00214-005-0655-y


 VandeVondele, J; Krack, M; Mohamed, F; Parrinello, M; Chassaing, T;
 Hutter, J. COMPUTER PHYSICS COMMUNICATIONS, 167 (2), 103-128 (2005). 
 QUICKSTEP: Fast and accurate density functional calculations using a
 mixed Gaussian and plane waves approach.
 http://dx.doi.org/10.1016/j.cpc.2004.12.014


 Frigo, M; Johnson, SG. 
 PROCEEDINGS OF THE IEEE, 93 (2), 216-231 (2005). 
 The design and implementation of FFTW3.
 http://dx.doi.org/10.1109/JPROC.2004.840301


 Kolafa, J. 
 JOURNAL OF COMPUTATIONAL CHEMISTRY, 25 (3), 335-342 (2004). 
 Time-reversible always stable predictor-corrector method for molecular dynamics of polarizable molecules.
 http://dx.doi.org/10.1002/jcc.10385


 Hartwigsen, C; Goedecker, S; Hutter, J. 
 PHYSICAL REVIEW B, 58 (7), 3641-3662 (1998). 
 Relativistic separable dual-space Gaussian pseudopotentials from H to Rn.
 http://dx.doi.org/10.1103/PhysRevB.58.3641


 Lippert, G; Hutter, J; Parrinello, M. 
 MOLECULAR PHYSICS, 92 (3), 477-487 (1997). 
 A hybrid Gaussian and plane wave density functional scheme.
 http://dx.doi.org/10.1080/002689797170220


 Goedecker, S; Teter, M; Hutter, J. 
 PHYSICAL REVIEW B, 54 (3), 1703-1710 (1996). 
 Separable dual-space Gaussian pseudopotentials.
 http://dx.doi.org/10.1103/PhysRevB.54.1703


 -------------------------------------------------------------------------------
 -                                                                             -
 -                                T I M I N G                                  -
 -                                                                             -
 -------------------------------------------------------------------------------
 SUBROUTINE                       CALLS  ASD         SELF TIME        TOTAL TIME
                                MAXIMUM       AVERAGE  MAXIMUM  AVERAGE  MAXIMUM
 CP2K                                 1  1.0    0.002    0.002   69.238   69.238
 cp_geo_opt                           1  2.0    0.000    0.000   69.077   69.077
 geoopt_bfgs                          1  3.0    0.003    0.003   69.077   69.077
 cp_eval_at                          36  4.0    0.002    0.002   69.037   69.037
 qs_forces                           35  5.0    0.002    0.002   67.814   67.814
 qs_energies_scf                     36  6.0    0.001    0.001   66.350   66.350
 scf_env_do_scf                      36  7.0    0.002    0.002   61.379   61.379
 scf_env_do_scf_inner_loop          382  8.0    0.033    0.033   61.376   61.376
 fft_wrap_pw1pw2                   4557 12.8    0.045    0.045   41.207   41.207
 fft_wrap_pw1pw2_50                2052 13.2    2.083    2.083   38.104   38.104
 rebuild_ks_matrix                  417  9.7    0.001    0.001   31.740   31.740
 qs_ks_build_kohn_sham_matrix       417 10.7    0.054    0.054   31.739   31.739
 qs_ks_update_qs_env                382  9.0    0.006    0.006   29.100   29.100
 fft3d_s                           4558 14.8   26.207   26.207   26.222   26.222
 qs_rho_update_rho                  418  9.1    0.002    0.002   20.506   20.506
 calculate_rho_elec                 418 10.1    1.561    1.561   20.504   20.504
 density_rs2pw                      418 11.1    0.009    0.009   18.747   18.747
 gspace_mixing                      346  9.0    0.737    0.737   13.062   13.062
 sum_up_and_integrate               417 11.7    0.269    0.269   12.205   12.205
 integrate_v_rspace                 417 12.7    1.142    1.142   11.935   11.935
 potential_pw2rs                    417 13.7    0.045    0.045   10.757   10.757
 qs_vxc_create                      417 11.7    0.005    0.005    7.711    7.711
 xc_vxc_pw_create                   417 12.7    0.873    0.873    7.706    7.706
 xc_rho_set_and_dset_create         417 13.7    0.009    0.009    6.832    6.832
 xc_functional_eval                 417 14.7    6.528    6.528    6.528    6.528
 pw_gather_s                       2125 14.6    6.394    6.394    6.394    6.394
 pw_scatter_s                      2432 15.1    6.281    6.281    6.281    6.281
 pulay_mixing                       346 10.0    6.250    6.250    6.259    6.259
 init_scf_run                        36  7.0    0.002    0.002    3.843    3.843
 scf_env_initial_rho_setup           36  8.0    0.001    0.001    3.836    3.836
 pw_poisson_solve                   417 11.7    2.224    2.224    3.288    3.288
 fft_wrap_pw1pw2_20                 835 14.4    0.147    0.147    2.757    2.757
 qs_ks_update_qs_env_forces          35  6.0    0.000    0.000    2.654    2.654
 pw_copy                           3336 13.9    2.314    2.314    2.314    2.314
 mixing_init                         36  9.0    1.975    1.975    1.975    1.975
 wfi_extrapolate                     36  9.0    0.003    0.003    1.804    1.804
 -------------------------------------------------------------------------------

  **** **** ******  **  PROGRAM ENDED AT                 2016-05-31 12:14:29.372
 ***** ** ***  *** **   PROGRAM RAN ON                       lauri-Lenovo-Z50-70
 **    ****   ******    PROGRAM RAN BY                                     lauri
 ***** **    ** ** **   PROGRAM PROCESS ID                                  8185
  **** **  *******  **  PROGRAM STOPPED IN /home/lauri/Dropbox/nomad-dev/nomad-l
                                           ab-base/parsers/cp2k/test/unittests/c
                                           p2k_2.6.2/geo_opt/bfgs
