 DBCSR| Multiplication driver                                                SMM
 DBCSR| Multrec recursion limit                                              512
 DBCSR| Multiplication stack size                                           1000
 DBCSR| Multiplication size stacks                                             3
 DBCSR| Use subcommunicators                                                   T
 DBCSR| Use MPI combined types                                                 F
 DBCSR| Use MPI memory allocation                                              T
 DBCSR| Use Communication thread                                               T
 DBCSR| Communication thread load                                             87


  **** **** ******  **  PROGRAM STARTED AT               2016-05-30 14:36:15.967
 ***** ** ***  *** **   PROGRAM STARTED ON                   lauri-Lenovo-Z50-70
 **    ****   ******    PROGRAM STARTED BY                                 lauri
 ***** **    ** ** **   PROGRAM PROCESS ID                                 11462
  **** **  *******  **  PROGRAM STARTED IN /home/lauri/Dropbox/nomad-dev/nomad-l
                                           ab-base/parsers/cp2k/test/unittests/c
                                           p2k_2.6.2/geo_opt/geometry_formats/pd
                                           b

 CP2K| version string:                                        CP2K version 2.6.2
 CP2K| source code revision number:                                    svn:15893
 CP2K| is freely available from                             http://www.cp2k.org/
 CP2K| Program compiled at                           ke 4.11.2015 08.48.42 +0200
 CP2K| Program compiled on                                   lauri-Lenovo-Z50-70
 CP2K| Program compiled for                          Linux-x86-64-gfortran_basic
 CP2K| Input file name                                               geo_opt.inp

 GLOBAL| Force Environment number                                              1
 GLOBAL| Basis set file name                                  ../../../BASIS_SET
 GLOBAL| Geminal file name                                         BASIS_GEMINAL
 GLOBAL| Potential file name                             ../../../GTH_POTENTIALS
 GLOBAL| MM Potential file name                                     MM_POTENTIAL
 GLOBAL| Coordinate file name                                      __STD_INPUT__
 GLOBAL| Method name                                                        CP2K
 GLOBAL| Project name                                                        H2O
 GLOBAL| Preferred FFT library                                             FFTW3
 GLOBAL| Preferred diagonalization lib.                                       SL
 GLOBAL| Run type                                                        GEO_OPT
 GLOBAL| All-to-all communication in single precision                          F
 GLOBAL| FFTs using library dependent lengths                                  F
 GLOBAL| Global print level                                               MEDIUM
 GLOBAL| Total number of message passing processes                             1
 GLOBAL| Number of threads for this process                                    1
 GLOBAL| This output is from process                                           0

 MEMORY| system memory details [Kb]
 MEMORY|                        rank 0           min           max       average
 MEMORY| MemTotal              8070360       8070360       8070360       8070360
 MEMORY| MemFree               2348240       2348240       2348240       2348240
 MEMORY| Buffers                909968        909968        909968        909968
 MEMORY| Cached                2182588       2182588       2182588       2182588
 MEMORY| Slab                   499772        499772        499772        499772
 MEMORY| SReclaimable           460636        460636        460636        460636
 MEMORY| MemLikelyFree         5901432       5901432       5901432       5901432


 *** Fundamental physical constants (SI units) ***

 *** Literature: B. J. Mohr and B. N. Taylor,
 ***             CODATA recommended values of the fundamental physical
 ***             constants: 2006, Web Version 5.1
 ***             http://physics.nist.gov/constants

 Speed of light in vacuum [m/s]                             2.99792458000000E+08
 Magnetic constant or permeability of vacuum [N/A**2]       1.25663706143592E-06
 Electric constant or permittivity of vacuum [F/m]          8.85418781762039E-12
 Planck constant (h) [J*s]                                  6.62606896000000E-34
 Planck constant (h-bar) [J*s]                              1.05457162825177E-34
 Elementary charge [C]                                      1.60217648700000E-19
 Electron mass [kg]                                         9.10938215000000E-31
 Electron g factor [ ]                                     -2.00231930436220E+00
 Proton mass [kg]                                           1.67262163700000E-27
 Fine-structure constant                                    7.29735253760000E-03
 Rydberg constant [1/m]                                     1.09737315685270E+07
 Avogadro constant [1/mol]                                  6.02214179000000E+23
 Boltzmann constant [J/K]                                   1.38065040000000E-23
 Atomic mass unit [kg]                                      1.66053878200000E-27
 Bohr radius [m]                                            5.29177208590000E-11

 *** Conversion factors ***

 [u] -> [a.u.]                                              1.82288848426455E+03
 [Angstrom] -> [Bohr] = [a.u.]                              1.88972613288564E+00
 [a.u.] = [Bohr] -> [Angstrom]                              5.29177208590000E-01
 [a.u.] -> [s]                                              2.41888432650478E-17
 [a.u.] -> [fs]                                             2.41888432650478E-02
 [a.u.] -> [J]                                              4.35974393937059E-18
 [a.u.] -> [N]                                              8.23872205491840E-08
 [a.u.] -> [K]                                              3.15774647902944E+05
 [a.u.] -> [kJ/mol]                                         2.62549961709828E+03
 [a.u.] -> [kcal/mol]                                       6.27509468713739E+02
 [a.u.] -> [Pa]                                             2.94210107994716E+13
 [a.u.] -> [bar]                                            2.94210107994716E+08
 [a.u.] -> [atm]                                            2.90362800883016E+08
 [a.u.] -> [eV]                                             2.72113838565563E+01
 [a.u.] -> [Hz]                                             6.57968392072181E+15
 [a.u.] -> [1/cm] (wave numbers)                            2.19474631370540E+05
 [a.u./Bohr**2] -> [1/cm]                                   5.14048714338585E+03
 

 CELL_TOP| Volume [angstrom^3]:                                         1912.997
 CELL_TOP| Vector a [angstrom    12.414     0.000     0.000    |a| =      12.414
 CELL_TOP| Vector b [angstrom     0.000    12.414     0.000    |b| =      12.414
 CELL_TOP| Vector c [angstrom     0.000     0.000    12.414    |c| =      12.414
 CELL_TOP| Angle (b,c), alpha [degree]:                                   90.000
 CELL_TOP| Angle (a,c), beta  [degree]:                                   90.000
 CELL_TOP| Angle (a,b), gamma [degree]:                                   90.000
 CELL_TOP| Numerically orthorhombic:                                         YES

 GENERATE|  Preliminary Number of Bonds generated:                             0
 GENERATE|  Achieved consistency in connectivity generation.

 CELL| Volume [angstrom^3]:                                             1912.997
 CELL| Vector a [angstrom]:      12.414     0.000     0.000    |a| =      12.414
 CELL| Vector b [angstrom]:       0.000    12.414     0.000    |b| =      12.414
 CELL| Vector c [angstrom]:       0.000     0.000    12.414    |c| =      12.414
 CELL| Angle (b,c), alpha [degree]:                                       90.000
 CELL| Angle (a,c), beta  [degree]:                                       90.000
 CELL| Angle (a,b), gamma [degree]:                                       90.000
 CELL| Numerically orthorhombic:                                             YES

 CELL_REF| Volume [angstrom^3]:                                         1912.997
 CELL_REF| Vector a [angstrom    12.414     0.000     0.000    |a| =      12.414
 CELL_REF| Vector b [angstrom     0.000    12.414     0.000    |b| =      12.414
 CELL_REF| Vector c [angstrom     0.000     0.000    12.414    |c| =      12.414
 CELL_REF| Angle (b,c), alpha [degree]:                                   90.000
 CELL_REF| Angle (a,c), beta  [degree]:                                   90.000
 CELL_REF| Angle (a,b), gamma [degree]:                                   90.000
 CELL_REF| Numerically orthorhombic:                                         YES

 *******************************************************************************
 *******************************************************************************
 **                                                                           **
 **     #####                         ##              ##                      **
 **    ##   ##            ##          ##              ##                      **
 **   ##     ##                       ##            ######                    **
 **   ##     ##  ##   ##  ##   #####  ##  ##   ####   ##    #####    #####    **
 **   ##     ##  ##   ##  ##  ##      ## ##   ##      ##   ##   ##  ##   ##   **
 **   ##  ## ##  ##   ##  ##  ##      ####     ###    ##   ######   ######    **
 **    ##  ###   ##   ##  ##  ##      ## ##      ##   ##   ##       ##        **
 **     #######   #####   ##   #####  ##  ##  ####    ##    #####   ##        **
 **           ##                                                    ##        **
 **                                                                           **
 **                                                ... make the atoms dance   **
 **                                                                           **
 **            Copyright (C) by CP2K Developers Group (2000 - 2014)           **
 **                                                                           **
 *******************************************************************************

 DFT| Spin restricted Kohn-Sham (RKS) calculation                            RKS
 DFT| Multiplicity                                                             1
 DFT| Number of spin states                                                    1
 DFT| Charge                                                                   0
 DFT| Self-interaction correction (SIC)                                       NO
 DFT| Cutoffs: density                                              1.000000E-10
 DFT|          gradient                                             1.000000E-10
 DFT|          tau                                                  1.000000E-10
 DFT|          cutoff_smoothing_range                               0.000000E+00
 DFT| XC density smoothing                                                  NONE
 DFT| XC derivatives                                                          PW
 FUNCTIONAL| ROUTINE=NEW
 FUNCTIONAL| PADE:
 FUNCTIONAL| S. Goedecker, M. Teter and J. Hutter, Phys. Rev. B 54, 1703 (1996)

 QS| Method:                                                                 GPW
 QS| Density plane wave grid type                        NON-SPHERICAL FULLSPACE
 QS| Number of grid levels:                                                    3
 QS| Density cutoff [a.u.]:                                                 50.0
 QS| Multi grid cutoff [a.u.]: 1) grid level                                50.0
 QS|                           2) grid level                                16.7
 QS|                           3) grid level                                 5.6
 QS| Grid level progression factor:                                          3.0
 QS| Relative density cutoff [a.u.]:                                        10.0
 QS| Consistent realspace mapping and integration 
 QS| Interaction thresholds: eps_pgf_orb:                                3.2E-04
 QS|                         eps_filter_matrix:                          0.0E+00
 QS|                         eps_core_charge:                            1.0E-09
 QS|                         eps_rho_gspace:                             1.0E-07
 QS|                         eps_rho_rspace:                             1.0E-07
 QS|                         eps_gvg_rspace:                             3.2E-04
 QS|                         eps_ppl:                                    1.0E-02
 QS|                         eps_ppnl:                                   3.2E-06


 ATOMIC KIND INFORMATION

  1. Atomic kind: O                                     Number of atoms:       1

     Orbital Basis Set                                             DZVP-GTH-PADE

       Number of orbital shell sets:                                           2
       Number of orbital shells:                                               5
       Number of primitive Cartesian functions:                                5
       Number of Cartesian basis functions:                                   14
       Number of spherical basis functions:                                   13
       Norm type:                                                              2

       Normalised Cartesian orbitals:

                        Set   Shell   Orbital            Exponent    Coefficient

                          1       1    2s                8.304404       0.526521
                                                         2.457945      -0.055011
                                                         0.759736      -0.404341
                                                         0.213639      -0.086026

                          1       2    3s                8.304404       0.000000
                                                         2.457945       0.000000
                                                         0.759736       0.000000
                                                         0.213639       0.223960

                          1       3    3px               8.304404      -2.000758
                                                         2.457945      -1.321077
                                                         0.759736      -0.480331
                                                         0.213639      -0.078647
                          1       3    3py               8.304404      -2.000758
                                                         2.457945      -1.321077
                                                         0.759736      -0.480331
                                                         0.213639      -0.078647
                          1       3    3pz               8.304404      -2.000758
                                                         2.457945      -1.321077
                                                         0.759736      -0.480331
                                                         0.213639      -0.078647

                          1       4    4px               8.304404       0.000000
                                                         2.457945       0.000000
                                                         0.759736       0.000000
                                                         0.213639       0.207033
                          1       4    4py               8.304404       0.000000
                                                         2.457945       0.000000
                                                         0.759736       0.000000
                                                         0.213639       0.207033
                          1       4    4pz               8.304404       0.000000
                                                         2.457945       0.000000
                                                         0.759736       0.000000
                                                         0.213639       0.207033

                          2       1    3dx2              0.800000       1.113825
                          2       1    3dxy              0.800000       1.929201
                          2       1    3dxz              0.800000       1.929201
                          2       1    3dy2              0.800000       1.113825
                          2       1    3dyz              0.800000       1.929201
                          2       1    3dz2              0.800000       1.113825

     Potential information for                                       GTH-PADE-q6

       Description:                       Goedecker-Teter-Hutter pseudopotential
                                           Goedecker et al., PRB 54, 1703 (1996)
                                          Hartwigsen et al., PRB 58, 3641 (1998)
                                                      Krack, TCA 114, 145 (2005)

       Gaussian exponent of the core charge distribution:               8.154466
       Electronic configuration (s p d ...):                               2   4

       Parameters of the local part of the GTH pseudopotential:

                          rloc        C1          C2          C3          C4
                        0.247621  -16.580318    2.395701

       Parameters of the non-local part of the GTH pseudopotential:

                   l      r(l)      h(i,j,l)

                   0    0.221786   18.266917
                   1    0.256829

  2. Atomic kind: H                                     Number of atoms:       2

     Orbital Basis Set                                             DZVP-GTH-PADE

       Number of orbital shell sets:                                           2
       Number of orbital shells:                                               3
       Number of primitive Cartesian functions:                                5
       Number of Cartesian basis functions:                                    5
       Number of spherical basis functions:                                    5
       Norm type:                                                              2

       Normalised Cartesian orbitals:

                        Set   Shell   Orbital            Exponent    Coefficient

                          1       1    1s                8.374435      -0.083834
                                                         1.805868      -0.155208
                                                         0.485253      -0.104875
                                                         0.165824      -0.128813

                          1       2    2s                8.374435       0.000000
                                                         1.805868       0.000000
                                                         0.485253       0.000000
                                                         0.165824       0.185202

                          2       1    2px               0.700000       0.912668
                          2       1    2py               0.700000       0.912668
                          2       1    2pz               0.700000       0.912668

     Potential information for                                       GTH-PADE-q1

       Description:                       Goedecker-Teter-Hutter pseudopotential
                                           Goedecker et al., PRB 54, 1703 (1996)
                                          Hartwigsen et al., PRB 58, 3641 (1998)
                                                      Krack, TCA 114, 145 (2005)

       Gaussian exponent of the core charge distribution:              12.500000
       Electronic configuration (s p d ...):                                   1

       Parameters of the local part of the GTH pseudopotential:

                          rloc        C1          C2          C3          C4
                        0.200000   -4.180237    0.725075


 MOLECULE KIND INFORMATION


 All atoms are their own molecule, skipping detailed information


 TOTAL NUMBERS AND MAXIMUM NUMBERS

  Total number of            - Atomic kinds:                                   2
                             - Atoms:                                          3
                             - Shell sets:                                     6
                             - Shells:                                        11
                             - Primitive Cartesian functions:                 15
                             - Cartesian basis functions:                     24
                             - Spherical basis functions:                     23

  Maximum angular momentum of- Orbital basis functions:                        2
                             - Local part of the GTH pseudopotential:          2
                             - Non-local part of the GTH pseudopotential:      0


 MODULE QUICKSTEP:  ATOMIC COORDINATES IN angstrom

  Atom  Kind  Element       X           Y           Z          Z(eff)       Mass

       1     1 O    8   12.235322    1.376642   10.869880      6.00      15.9994
       2     2 H    1   12.415139    2.233125   11.257611      1.00       1.0079
       3     2 H    1   11.922476    1.573799    9.986994      1.00       1.0079




 SCF PARAMETERS         Density guess:                                    ATOMIC
                        --------------------------------------------------------
                        max_scf:                                             200
                        max_scf_history:                                       0
                        max_diis:                                              4
                        --------------------------------------------------------
                        eps_scf:                                        1.00E-05
                        eps_scf_history:                                0.00E+00
                        eps_diis:                                       1.00E-01
                        eps_eigval:                                     1.00E-05
                        --------------------------------------------------------
                        level_shift [a.u.]:                                 0.00
                        --------------------------------------------------------
                        Mixing method:                              PULAY_MIXING
                                                charge density mixing in g-space
                        --------------------------------------------------------
                        No outer SCF

 PW_GRID| Information for grid number                                          1
 PW_GRID| Cutoff [a.u.]                                                     50.0
 PW_GRID| spherical cutoff:                                                   NO
 PW_GRID|   Bounds   1            -37      37                Points:          75
 PW_GRID|   Bounds   2            -37      37                Points:          75
 PW_GRID|   Bounds   3            -37      37                Points:          75
 PW_GRID| Volume element (a.u.^3)  0.3060E-01     Volume (a.u.^3)     12909.5421
 PW_GRID| Grid span                                                    FULLSPACE

 PW_GRID| Information for grid number                                          2
 PW_GRID| Cutoff [a.u.]                                                     16.7
 PW_GRID| spherical cutoff:                                                   NO
 PW_GRID|   Bounds   1            -22      22                Points:          45
 PW_GRID|   Bounds   2            -22      22                Points:          45
 PW_GRID|   Bounds   3            -22      22                Points:          45
 PW_GRID| Volume element (a.u.^3)  0.1417         Volume (a.u.^3)     12909.5421
 PW_GRID| Grid span                                                    FULLSPACE

 PW_GRID| Information for grid number                                          3
 PW_GRID| Cutoff [a.u.]                                                      5.6
 PW_GRID| spherical cutoff:                                                   NO
 PW_GRID|   Bounds   1            -12      12                Points:          25
 PW_GRID|   Bounds   2            -12      12                Points:          25
 PW_GRID|   Bounds   3            -12      12                Points:          25
 PW_GRID| Volume element (a.u.^3)  0.8262         Volume (a.u.^3)     12909.5421
 PW_GRID| Grid span                                                    FULLSPACE

 POISSON| Solver                                                        PERIODIC
 POISSON| Periodicity                                                        XYZ

 RS_GRID| Information for grid number                                          1
 RS_GRID|   Bounds   1            -37      37                Points:          75
 RS_GRID|   Bounds   2            -37      37                Points:          75
 RS_GRID|   Bounds   3            -37      37                Points:          75

 RS_GRID| Information for grid number                                          2
 RS_GRID|   Bounds   1            -22      22                Points:          45
 RS_GRID|   Bounds   2            -22      22                Points:          45
 RS_GRID|   Bounds   3            -22      22                Points:          45

 RS_GRID| Information for grid number                                          3
 RS_GRID|   Bounds   1            -12      12                Points:          25
 RS_GRID|   Bounds   2            -12      12                Points:          25
 RS_GRID|   Bounds   3            -12      12                Points:          25

 DISTRIBUTION OF THE PARTICLES (ROWS)
              Process row      Number of particles         Number of matrix rows
                        0                        3                            -1
                      Sum                        3                            -1

 DISTRIBUTION OF THE PARTICLES (COLUMNS)
              Process col      Number of particles      Number of matrix columns
                        0                        3                            -1
                      Sum                        3                            -1

 *******************************************************************************
 ***                     STARTING GEOMETRY OPTIMIZATION                      ***
 ***                           CONJUGATE GRADIENTS                           ***
 *******************************************************************************

 DISTRIBUTION OF THE NEIGHBOR LISTS
              Total number of particle pairs:                                  6
              Total number of matrix elements:                               374
              Average number of particle pairs:                                6
              Maximum number of particle pairs:                                6
              Average number of matrix element:                              374
              Maximum number of matrix elements:                             374


 DISTRIBUTION OF THE OVERLAP MATRIX
              Number  of non-zero blocks:                                      6
              Percentage non-zero blocks:                                 100.00
              Average number of blocks per CPU:                                6
              Maximum number of blocks per CPU:                                6
              Average number of matrix elements per CPU:                     384
              Maximum number of matrix elements per CPU:                     384

 Number of electrons:                                                          8
 Number of occupied orbitals:                                                  4
 Number of molecular orbitals:                                                 4

 Number of orbital functions:                                                 23
 Number of independent orbital functions:                                     23

 Extrapolation method: initial_guess

 Atomic guess: The first density matrix is obtained in terms of atomic orbitals
               and electronic configurations assigned to each atomic kind

 Guess for atomic kind: O

 Electronic structure
    Total number of core electrons                                          2.00
    Total number of valence electrons                                       6.00
    Total number of electrons                                               8.00
    Multiplicity                                                   not specified
    S   [  2.00] 2.00
    P      4.00


 *******************************************************************************
                  Iteration          Convergence                     Energy [au]
 *******************************************************************************
                          1         1.68085                     -14.857481728656
                          2         2.15642                     -14.936142370053
                          3        0.890654E-01                 -15.701381433081
                          4        0.300038E-02                 -15.702655347039
                          5        0.124050E-02                 -15.702656532555
                          6        0.771851E-03                 -15.702656682204
                          7        0.254544E-04                 -15.702656776553
                          8        0.154783E-06                 -15.702656776662

 Energy components [Hartree]           Total Energy ::          -15.702656776662
                                        Band Energy ::           -2.982159100248
                                     Kinetic Energy ::           11.942300538966
                                   Potential Energy ::          -27.644957315628
                                      Virial (-V/T) ::            2.314877039430
                                        Core Energy ::          -26.240316547129
                                          XC Energy ::           -3.168822356033
                                     Coulomb Energy ::           13.706482126500
                       Total Pseudopotential Energy ::          -38.217120617695
                       Local Pseudopotential Energy ::          -39.522374145046
                    Nonlocal Pseudopotential Energy ::            1.305253527351
                                        Confinement ::            0.345035316001

 Orbital energies  State     L     Occupation   Energy[a.u.]          Energy[eV]

                       1     0          2.000      -0.854038          -23.239548

                       1     1          4.000      -0.318521           -8.667395


 Guess for atomic kind: H

 Electronic structure
    Total number of core electrons                                          0.00
    Total number of valence electrons                                       1.00
    Total number of electrons                                               1.00
    Multiplicity                                                   not specified
    S      1.00


 *******************************************************************************
                  Iteration          Convergence                     Energy [au]
 *******************************************************************************
                          1        0.316011E-02                  -0.422390558413
                          2        0.333152E-03                  -0.422399635530
                          3        0.114302E-06                  -0.422399737491

 Energy components [Hartree]           Total Energy ::           -0.422399737491
                                        Band Energy ::           -0.193019372217
                                     Kinetic Energy ::            0.475009752129
                                   Potential Energy ::           -0.897409489620
                                      Virial (-V/T) ::            1.889244348347
                                        Core Energy ::           -0.478923189740
                                          XC Energy ::           -0.248206713182
                                     Coulomb Energy ::            0.304730165431
                       Total Pseudopotential Energy ::           -0.971460622099
                       Local Pseudopotential Energy ::           -0.971460622099
                    Nonlocal Pseudopotential Energy ::            0.000000000000
                                        Confinement ::            0.175276802303

 Orbital energies  State     L     Occupation   Energy[a.u.]          Energy[eV]

                       1     0          1.000      -0.193019           -5.252324

 Re-scaling the density matrix to get the right number of electrons
                  # Electrons              Trace(P)               Scaling factor
                            8                 8.000                        1.000


 SCF WAVEFUNCTION OPTIMIZATION

  Step     Update method      Time    Convergence         Total energy    Change
  ------------------------------------------------------------------------------

  Trace(PS):                                    8.0000000000
  Electronic density on regular grids:         -8.0000036774       -0.0000036774
  Core density on regular grids:                8.0002817176        0.0002817176
  Total charge density on r-space grids:        0.0002780403
  Total charge density g-space grids:           0.0002780403

     1 NoMix/Diag. 0.50E+00    0.1     1.13140558       -17.0031214858 -1.70E+01

  Trace(PS):                                    8.0000000000
  Electronic density on regular grids:         -7.9998890597        0.0001109403
  Core density on regular grids:                8.0002817176        0.0002817176
  Total charge density on r-space grids:        0.0003926579
  Total charge density g-space grids:           0.0003926579

     2 Pulay/Diag. 0.50E+00    0.2     0.38482483       -15.9278275048  1.08E+00

  Trace(PS):                                    8.0000000000
  Electronic density on regular grids:         -7.9997675983        0.0002324017
  Core density on regular grids:                8.0002817176        0.0002817176
  Total charge density on r-space grids:        0.0005141194
  Total charge density g-space grids:           0.0005141194

     3 Pulay/Diag. 0.50E+00    0.2     0.07778280       -17.4345440685 -1.51E+00

  Trace(PS):                                    8.0000000000
  Electronic density on regular grids:         -7.9997736464        0.0002263536
  Core density on regular grids:                8.0002817176        0.0002817176
  Total charge density on r-space grids:        0.0005080713
  Total charge density g-space grids:           0.0005080713

     4 Pulay/Diag. 0.50E+00    0.2     0.00845483       -17.1509429352  2.84E-01

  Trace(PS):                                    8.0000000000
  Electronic density on regular grids:         -7.9997712579        0.0002287421
  Core density on regular grids:                8.0002817176        0.0002817176
  Total charge density on r-space grids:        0.0005104597
  Total charge density g-space grids:           0.0005104597

     5 Pulay/Diag. 0.50E+00    0.2     0.00400659       -17.1776185009 -2.67E-02

  Trace(PS):                                    8.0000000000
  Electronic density on regular grids:         -7.9997710915        0.0002289085
  Core density on regular grids:                8.0002817176        0.0002817176
  Total charge density on r-space grids:        0.0005106261
  Total charge density g-space grids:           0.0005106261

     6 Pulay/Diag. 0.50E+00    0.2     0.00115874       -17.1550968752  2.25E-02

  Trace(PS):                                    8.0000000000
  Electronic density on regular grids:         -7.9997706373        0.0002293627
  Core density on regular grids:                8.0002817176        0.0002817176
  Total charge density on r-space grids:        0.0005110804
  Total charge density g-space grids:           0.0005110804

     7 Pulay/Diag. 0.50E+00    0.2     0.00057520       -17.1514053099  3.69E-03

  Trace(PS):                                    8.0000000000
  Electronic density on regular grids:         -7.9997703090        0.0002296910
  Core density on regular grids:                8.0002817176        0.0002817176
  Total charge density on r-space grids:        0.0005114086
  Total charge density g-space grids:           0.0005114086

     8 Pulay/Diag. 0.50E+00    0.2     0.00052752       -17.1511174720  2.88E-04

  Trace(PS):                                    8.0000000000
  Electronic density on regular grids:         -7.9997702233        0.0002297767
  Core density on regular grids:                8.0002817176        0.0002817176
  Total charge density on r-space grids:        0.0005114944
  Total charge density g-space grids:           0.0005114944

     9 Pulay/Diag. 0.50E+00    0.2     0.00020986       -17.1502840660  8.33E-04

  Trace(PS):                                    8.0000000000
  Electronic density on regular grids:         -7.9997701608        0.0002298392
  Core density on regular grids:                8.0002817176        0.0002817176
  Total charge density on r-space grids:        0.0005115568
  Total charge density g-space grids:           0.0005115568

    10 Pulay/Diag. 0.50E+00    0.2     0.00007855       -17.1503992120 -1.15E-04

  Trace(PS):                                    8.0000000000
  Electronic density on regular grids:         -7.9997701545        0.0002298455
  Core density on regular grids:                8.0002817176        0.0002817176
  Total charge density on r-space grids:        0.0005115631
  Total charge density g-space grids:           0.0005115631

    11 Pulay/Diag. 0.50E+00    0.2     0.00003274       -17.1502296093  1.70E-04

  Trace(PS):                                    8.0000000000
  Electronic density on regular grids:         -7.9997701415        0.0002298585
  Core density on regular grids:                8.0002817176        0.0002817176
  Total charge density on r-space grids:        0.0005115761
  Total charge density g-space grids:           0.0005115761

    12 Pulay/Diag. 0.50E+00    0.2     0.00001688       -17.1502692577 -3.96E-05

  Trace(PS):                                    8.0000000000
  Electronic density on regular grids:         -7.9997701391        0.0002298609
  Core density on regular grids:                8.0002817176        0.0002817176
  Total charge density on r-space grids:        0.0005115786
  Total charge density g-space grids:           0.0005115786

    13 Pulay/Diag. 0.50E+00    0.2     0.00000451       -17.1502121877  5.71E-05

  *** SCF run converged in    13 steps ***


  Electronic density on regular grids:         -7.9997701391        0.0002298609
  Core density on regular grids:                8.0002817176        0.0002817176
  Total charge density on r-space grids:        0.0005115786
  Total charge density g-space grids:           0.0005115786

  Overlap energy of the core charge distribution:               0.00000008790619
  Self energy of the core charge distribution:                -43.83289054591484
  Core Hamiltonian energy:                                     12.86781811430041
  Hartree energy:                                              17.95497096962030
  Exchange-correlation energy:                                 -4.14011081361552

  Total energy:                                               -17.15021218770346


 MULLIKEN POPULATION ANALYSIS

 #  Atom  Element  Kind  Atomic population                Net charge
       1     O        1          6.652043                 -0.652043
       2     H        2          0.675753                  0.324247
       3     H        2          0.672204                  0.327796
 # Total charge                  8.000000                 -0.000000


 !-----------------------------------------------------------------------------!
                           Hirschfeld Charges

  #Atom  Element  Kind  Ref Charge     Population                     Net charge
      1       O      1       6.000          6.557                         -0.557
      2       H      2       1.000          0.722                          0.278
      3       H      2       1.000          0.721                          0.279

  Total Charge                                                             0.000
 !-----------------------------------------------------------------------------!

  Trace(PS):                                    8.0000000000
  Electronic density on regular grids:         -7.9997701381        0.0002298619
  Core density on regular grids:                8.0002817176        0.0002817176
  Total charge density on r-space grids:        0.0005115795
  Total charge density g-space grids:           0.0005115795


 ENERGY| Total FORCE_EVAL ( QS ) energy (a.u.):              -17.150209538763491


 --------  Informations at step =     0 ------------
  Optimization Method        =                   SD
  Total Energy               =       -17.1502095388
  Used time                  =                2.353
 ---------------------------------------------------

 --------------------------
 OPTIMIZATION STEP:      1
 --------------------------

 DISTRIBUTION OF THE NEIGHBOR LISTS
              Total number of particle pairs:                                  6
              Total number of matrix elements:                               374
              Average number of particle pairs:                                6
              Maximum number of particle pairs:                                6
              Average number of matrix element:                              374
              Maximum number of matrix elements:                             374


 DISTRIBUTION OF THE OVERLAP MATRIX
              Number  of non-zero blocks:                                      6
              Percentage non-zero blocks:                                 100.00
              Average number of blocks per CPU:                                6
              Maximum number of blocks per CPU:                                6
              Average number of matrix elements per CPU:                     384
              Maximum number of matrix elements per CPU:                     384

 Number of electrons:                                                          8
 Number of occupied orbitals:                                                  4
 Number of molecular orbitals:                                                 4

 Number of orbital functions:                                                 23
 Number of independent orbital functions:                                     23

 Parameters for the always stable predictor-corrector (ASPC) method:

  ASPC order: 0

  B(1) =   1.000000

 Extrapolation method: ASPC


 SCF WAVEFUNCTION OPTIMIZATION

  Step     Update method      Time    Convergence         Total energy    Change
  ------------------------------------------------------------------------------

  Trace(PS):                                    8.0000000000
  Electronic density on regular grids:         -7.9997701381        0.0002298619
  Core density on regular grids:                8.0002817176        0.0002817176
  Total charge density on r-space grids:        0.0005115795
  Total charge density g-space grids:           0.0005115795

     1 Pulay/Diag. 0.50E+00    0.1     0.00000382       -17.1502095388 -1.72E+01

  *** SCF run converged in     1 steps ***


  Electronic density on regular grids:         -7.9997701381        0.0002298619
  Core density on regular grids:                8.0002817176        0.0002817176
  Total charge density on r-space grids:        0.0005115795
  Total charge density g-space grids:           0.0005115795

  Overlap energy of the core charge distribution:               0.00000008790619
  Self energy of the core charge distribution:                -43.83289054591484
  Core Hamiltonian energy:                                     12.86782341801278
  Hartree energy:                                              17.95496957588349
  Exchange-correlation energy:                                 -4.14011207465111

  Total energy:                                               -17.15020953876349


 MULLIKEN POPULATION ANALYSIS

 #  Atom  Element  Kind  Atomic population                Net charge
       1     O        1          6.652037                 -0.652037
       2     H        2          0.675756                  0.324244
       3     H        2          0.672206                  0.327794
 # Total charge                  8.000000                 -0.000000


 !-----------------------------------------------------------------------------!
                           Hirschfeld Charges

  #Atom  Element  Kind  Ref Charge     Population                     Net charge
      1       O      1       6.000          6.557                         -0.557
      2       H      2       1.000          0.722                          0.278
      3       H      2       1.000          0.721                          0.279

  Total Charge                                                             0.000
 !-----------------------------------------------------------------------------!

 ENERGY| Total FORCE_EVAL ( QS ) energy (a.u.):              -17.150209538763491


 DISTRIBUTION OF THE NEIGHBOR LISTS
              Total number of particle pairs:                                  6
              Total number of matrix elements:                               374
              Average number of particle pairs:                                6
              Maximum number of particle pairs:                                6
              Average number of matrix element:                              374
              Maximum number of matrix elements:                             374


 DISTRIBUTION OF THE OVERLAP MATRIX
              Number  of non-zero blocks:                                      6
              Percentage non-zero blocks:                                 100.00
              Average number of blocks per CPU:                                6
              Maximum number of blocks per CPU:                                6
              Average number of matrix elements per CPU:                     384
              Maximum number of matrix elements per CPU:                     384

 Number of electrons:                                                          8
 Number of occupied orbitals:                                                  4
 Number of molecular orbitals:                                                 4

 Number of orbital functions:                                                 23
 Number of independent orbital functions:                                     23

 Parameters for the always stable predictor-corrector (ASPC) method:

  ASPC order: 0

  B(1) =   2.000000
  B(2) =  -1.000000

 Extrapolation method: ASPC


 SCF WAVEFUNCTION OPTIMIZATION

  Step     Update method      Time    Convergence         Total energy    Change
  ------------------------------------------------------------------------------

  Trace(PS):                                    8.0000000000
  Electronic density on regular grids:         -7.9997584697        0.0002415303
  Core density on regular grids:                8.0006256067        0.0006256067
  Total charge density on r-space grids:        0.0008671370
  Total charge density g-space grids:           0.0008671370

     1 Pulay/Diag. 0.50E+00    0.1     0.12146122       -17.1326391462 -1.71E+01

  Trace(PS):                                    8.0000000000
  Electronic density on regular grids:         -7.9997780945        0.0002219055
  Core density on regular grids:                8.0006256067        0.0006256067
  Total charge density on r-space grids:        0.0008475122
  Total charge density g-space grids:           0.0008475122

     2 Pulay/Diag. 0.50E+00    0.2     0.03174828       -17.0236439857  1.09E-01

  Trace(PS):                                    8.0000000000
  Electronic density on regular grids:         -7.9997966604        0.0002033396
  Core density on regular grids:                8.0006256067        0.0006256067
  Total charge density on r-space grids:        0.0008289463
  Total charge density g-space grids:           0.0008289463

     3 Pulay/Diag. 0.50E+00    0.2     0.01468690       -17.1507589285 -1.27E-01

  Trace(PS):                                    8.0000000000
  Electronic density on regular grids:         -7.9997957297        0.0002042703
  Core density on regular grids:                8.0006256067        0.0006256067
  Total charge density on r-space grids:        0.0008298770
  Total charge density g-space grids:           0.0008298770

     4 Pulay/Diag. 0.50E+00    0.2     0.00467522       -17.1222299975  2.85E-02

  Trace(PS):                                    8.0000000000
  Electronic density on regular grids:         -7.9997958736        0.0002041264
  Core density on regular grids:                8.0006256067        0.0006256067
  Total charge density on r-space grids:        0.0008297331
  Total charge density g-space grids:           0.0008297331

     5 Pulay/Diag. 0.50E+00    0.2     0.00050785       -17.1361821206 -1.40E-02

  Trace(PS):                                    8.0000000000
  Electronic density on regular grids:         -7.9997958576        0.0002041424
  Core density on regular grids:                8.0006256067        0.0006256067
  Total charge density on r-space grids:        0.0008297491
  Total charge density g-space grids:           0.0008297491

     6 Pulay/Diag. 0.50E+00    0.2     0.00016108       -17.1349853170  1.20E-03

  Trace(PS):                                    8.0000000000
  Electronic density on regular grids:         -7.9997958490        0.0002041510
  Core density on regular grids:                8.0006256067        0.0006256067
  Total charge density on r-space grids:        0.0008297577
  Total charge density g-space grids:           0.0008297577

     7 Pulay/Diag. 0.50E+00    0.2     0.00005647       -17.1346754924  3.10E-04

  Trace(PS):                                    8.0000000000
  Electronic density on regular grids:         -7.9997958464        0.0002041536
  Core density on regular grids:                8.0006256067        0.0006256067
  Total charge density on r-space grids:        0.0008297603
  Total charge density g-space grids:           0.0008297603

     8 Pulay/Diag. 0.50E+00    0.2     0.00002230       -17.1346296092  4.59E-05

  Trace(PS):                                    8.0000000000
  Electronic density on regular grids:         -7.9997958406        0.0002041594
  Core density on regular grids:                8.0006256067        0.0006256067
  Total charge density on r-space grids:        0.0008297661
  Total charge density g-space grids:           0.0008297661

     9 Pulay/Diag. 0.50E+00    0.2     0.00001948       -17.1346276115  2.00E-06

  Trace(PS):                                    8.0000000000
  Electronic density on regular grids:         -7.9997958397        0.0002041603
  Core density on regular grids:                8.0006256067        0.0006256067
  Total charge density on r-space grids:        0.0008297670
  Total charge density g-space grids:           0.0008297670

    10 Pulay/Diag. 0.50E+00    0.2     0.00000675       -17.1346210234  6.59E-06

  *** SCF run converged in    10 steps ***


  Electronic density on regular grids:         -7.9997958397        0.0002041603
  Core density on regular grids:                8.0006256067        0.0006256067
  Total charge density on r-space grids:        0.0008297670
  Total charge density g-space grids:           0.0008297670

  Overlap energy of the core charge distribution:               0.00000072966568
  Self energy of the core charge distribution:                -43.83289054591484
  Core Hamiltonian energy:                                     12.99309784383492
  Hartree energy:                                              17.87805560940666
  Exchange-correlation energy:                                 -4.17288466042047

  Total energy:                                               -17.13462102342804


 MULLIKEN POPULATION ANALYSIS

 #  Atom  Element  Kind  Atomic population                Net charge
       1     O        1          6.646283                 -0.646283
       2     H        2          0.679966                  0.320034
       3     H        2          0.673751                  0.326249
 # Total charge                  8.000000                 -0.000000


 !-----------------------------------------------------------------------------!
                           Hirschfeld Charges

  #Atom  Element  Kind  Ref Charge     Population                     Net charge
      1       O      1       6.000          6.546                         -0.546
      2       H      2       1.000          0.714                          0.286
      3       H      2       1.000          0.740                          0.260

  Total Charge                                                             0.000
 !-----------------------------------------------------------------------------!

 ENERGY| Total FORCE_EVAL ( QS ) energy (a.u.):              -17.134621023428039


 DISTRIBUTION OF THE NEIGHBOR LISTS
              Total number of particle pairs:                                  6
              Total number of matrix elements:                               374
              Average number of particle pairs:                                6
              Maximum number of particle pairs:                                6
              Average number of matrix element:                              374
              Maximum number of matrix elements:                             374


 DISTRIBUTION OF THE OVERLAP MATRIX
              Number  of non-zero blocks:                                      6
              Percentage non-zero blocks:                                 100.00
              Average number of blocks per CPU:                                6
              Maximum number of blocks per CPU:                                6
              Average number of matrix elements per CPU:                     384
              Maximum number of matrix elements per CPU:                     384

 Number of electrons:                                                          8
 Number of occupied orbitals:                                                  4
 Number of molecular orbitals:                                                 4

 Number of orbital functions:                                                 23
 Number of independent orbital functions:                                     23

 Parameters for the always stable predictor-corrector (ASPC) method:

  ASPC order: 1

  B(1) =   2.500000
  B(2) =  -2.000000
  B(3) =   0.500000

 Extrapolation method: ASPC


 SCF WAVEFUNCTION OPTIMIZATION

  Step     Update method      Time    Convergence         Total energy    Change
  ------------------------------------------------------------------------------

  Trace(PS):                                    8.0000000000
  Electronic density on regular grids:         -7.9998958307        0.0001041693
  Core density on regular grids:                7.9998167812       -0.0001832188
  Total charge density on r-space grids:       -0.0000790494
  Total charge density g-space grids:          -0.0000790494

     1 Pulay/Diag. 0.50E+00    0.1     0.52282322       -17.1159960532 -1.71E+01

  Trace(PS):                                    8.0000000000
  Electronic density on regular grids:         -7.9998117397        0.0001882603
  Core density on regular grids:                7.9998167812       -0.0001832188
  Total charge density on r-space grids:        0.0000050416
  Total charge density g-space grids:           0.0000050416

     2 Pulay/Diag. 0.50E+00    0.2     0.14566635       -17.6215283098 -5.06E-01

  Trace(PS):                                    8.0000000000
  Electronic density on regular grids:         -7.9997396080        0.0002603920
  Core density on regular grids:                7.9998167812       -0.0001832188
  Total charge density on r-space grids:        0.0000771732
  Total charge density g-space grids:           0.0000771732

     3 Pulay/Diag. 0.50E+00    0.2     0.06035281       -17.0017188662  6.20E-01

  Trace(PS):                                    8.0000000000
  Electronic density on regular grids:         -7.9997433723        0.0002566277
  Core density on regular grids:                7.9998167812       -0.0001832188
  Total charge density on r-space grids:        0.0000734089
  Total charge density g-space grids:           0.0000734089

     4 Pulay/Diag. 0.50E+00    0.2     0.01698823       -17.1793224875 -1.78E-01

  Trace(PS):                                    8.0000000000
  Electronic density on regular grids:         -7.9997430127        0.0002569873
  Core density on regular grids:                7.9998167812       -0.0001832188
  Total charge density on r-space grids:        0.0000737685
  Total charge density g-space grids:           0.0000737685

     5 Pulay/Diag. 0.50E+00    0.2     0.00211334       -17.1400934074  3.92E-02

  Trace(PS):                                    8.0000000000
  Electronic density on regular grids:         -7.9997431479        0.0002568521
  Core density on regular grids:                7.9998167812       -0.0001832188
  Total charge density on r-space grids:        0.0000736333
  Total charge density g-space grids:           0.0000736333

     6 Pulay/Diag. 0.50E+00    0.2     0.00066605       -17.1448776728 -4.78E-03

  Trace(PS):                                    8.0000000000
  Electronic density on regular grids:         -7.9997432762        0.0002567238
  Core density on regular grids:                7.9998167812       -0.0001832188
  Total charge density on r-space grids:        0.0000735050
  Total charge density g-space grids:           0.0000735050

     7 Pulay/Diag. 0.50E+00    0.2     0.00018161       -17.1465859248 -1.71E-03

  Trace(PS):                                    8.0000000000
  Electronic density on regular grids:         -7.9997432787        0.0002567213
  Core density on regular grids:                7.9998167812       -0.0001832188
  Total charge density on r-space grids:        0.0000735026
  Total charge density g-space grids:           0.0000735026

     8 Pulay/Diag. 0.50E+00    0.2     0.00008157       -17.1468542344 -2.68E-04

  Trace(PS):                                    8.0000000000
  Electronic density on regular grids:         -7.9997433251        0.0002566749
  Core density on regular grids:                7.9998167812       -0.0001832188
  Total charge density on r-space grids:        0.0000734561
  Total charge density g-space grids:           0.0000734561

     9 Pulay/Diag. 0.50E+00    0.2     0.00006994       -17.1467964592  5.78E-05

  Trace(PS):                                    8.0000000000
  Electronic density on regular grids:         -7.9997433315        0.0002566685
  Core density on regular grids:                7.9998167812       -0.0001832188
  Total charge density on r-space grids:        0.0000734498
  Total charge density g-space grids:           0.0000734498

    10 Pulay/Diag. 0.50E+00    0.2     0.00003133       -17.1468680387 -7.16E-05

  Trace(PS):                                    8.0000000000
  Electronic density on regular grids:         -7.9997433359        0.0002566641
  Core density on regular grids:                7.9998167812       -0.0001832188
  Total charge density on r-space grids:        0.0000734453
  Total charge density g-space grids:           0.0000734453

    11 Pulay/Diag. 0.50E+00    0.2     0.00001095       -17.1467857116  8.23E-05

  Trace(PS):                                    8.0000000000
  Electronic density on regular grids:         -7.9997433381        0.0002566619
  Core density on regular grids:                7.9998167812       -0.0001832188
  Total charge density on r-space grids:        0.0000734431
  Total charge density g-space grids:           0.0000734431

    12 Pulay/Diag. 0.50E+00    0.2     0.00000632       -17.1467983743 -1.27E-05

  *** SCF run converged in    12 steps ***


  Electronic density on regular grids:         -7.9997433381        0.0002566619
  Core density on regular grids:                7.9998167812       -0.0001832188
  Total charge density on r-space grids:        0.0000734431
  Total charge density g-space grids:           0.0000734431

  Overlap energy of the core charge distribution:               0.00000011016999
  Self energy of the core charge distribution:                -43.83289054591484
  Core Hamiltonian energy:                                     12.73038392116768
  Hartree energy:                                              18.05456705526460
  Exchange-correlation energy:                                 -4.09885891494076

  Total energy:                                               -17.14679837425334


 MULLIKEN POPULATION ANALYSIS

 #  Atom  Element  Kind  Atomic population                Net charge
       1     O        1          6.647060                 -0.647060
       2     H        2          0.669476                  0.330524
       3     H        2          0.683464                  0.316536
 # Total charge                  8.000000                  0.000000


 !-----------------------------------------------------------------------------!
                           Hirschfeld Charges

  #Atom  Element  Kind  Ref Charge     Population                     Net charge
      1       O      1       6.000          6.567                         -0.567
      2       H      2       1.000          0.732                          0.268
      3       H      2       1.000          0.700                          0.300

  Total Charge                                                             0.000
 !-----------------------------------------------------------------------------!

 ENERGY| Total FORCE_EVAL ( QS ) energy (a.u.):              -17.146798374253336


 *******************************************************************************
 ***                 MNBRACK - NUMBER OF ENERGY EVALUATIONS :       3        ***
 *******************************************************************************

 DISTRIBUTION OF THE NEIGHBOR LISTS
              Total number of particle pairs:                                  6
              Total number of matrix elements:                               374
              Average number of particle pairs:                                6
              Maximum number of particle pairs:                                6
              Average number of matrix element:                              374
              Maximum number of matrix elements:                             374


 DISTRIBUTION OF THE OVERLAP MATRIX
              Number  of non-zero blocks:                                      6
              Percentage non-zero blocks:                                 100.00
              Average number of blocks per CPU:                                6
              Maximum number of blocks per CPU:                                6
              Average number of matrix elements per CPU:                     384
              Maximum number of matrix elements per CPU:                     384

 Number of electrons:                                                          8
 Number of occupied orbitals:                                                  4
 Number of molecular orbitals:                                                 4

 Number of orbital functions:                                                 23
 Number of independent orbital functions:                                     23

 Parameters for the always stable predictor-corrector (ASPC) method:

  ASPC order: 2

  B(1) =   2.800000
  B(2) =  -2.800000
  B(3) =   1.200000
  B(4) =  -0.200000

 Extrapolation method: ASPC


 SCF WAVEFUNCTION OPTIMIZATION

  Step     Update method      Time    Convergence         Total energy    Change
  ------------------------------------------------------------------------------

  Trace(PS):                                    8.0000000000
  Electronic density on regular grids:         -7.9995712248        0.0004287752
  Core density on regular grids:                8.0002817176        0.0002817176
  Total charge density on r-space grids:        0.0007104928
  Total charge density g-space grids:           0.0007104928

     1 Pulay/Diag. 0.50E+00    0.1     0.68004074       -17.0619146395 -1.71E+01

  Trace(PS):                                    8.0000000000
  Electronic density on regular grids:         -7.9996779567        0.0003220433
  Core density on regular grids:                8.0002817176        0.0002817176
  Total charge density on r-space grids:        0.0006037609
  Total charge density g-space grids:           0.0006037609

     2 Pulay/Diag. 0.50E+00    0.2     0.21746646       -16.3853563005  6.77E-01

  Trace(PS):                                    8.0000000000
  Electronic density on regular grids:         -7.9997747339        0.0002252661
  Core density on regular grids:                8.0002817176        0.0002817176
  Total charge density on r-space grids:        0.0005069838
  Total charge density g-space grids:           0.0005069838

     3 Pulay/Diag. 0.50E+00    0.2     0.10226406       -17.2779708747 -8.93E-01

  Trace(PS):                                    8.0000000000
  Electronic density on regular grids:         -7.9997698377        0.0002301623
  Core density on regular grids:                8.0002817176        0.0002817176
  Total charge density on r-space grids:        0.0005118800
  Total charge density g-space grids:           0.0005118800

     4 Pulay/Diag. 0.50E+00    0.2     0.03135255       -17.0751950120  2.03E-01

  Trace(PS):                                    8.0000000000
  Electronic density on regular grids:         -7.9997706128        0.0002293872
  Core density on regular grids:                8.0002817176        0.0002817176
  Total charge density on r-space grids:        0.0005111048
  Total charge density g-space grids:           0.0005111048

     5 Pulay/Diag. 0.50E+00    0.2     0.00383774       -17.1639180008 -8.87E-02

  Trace(PS):                                    8.0000000000
  Electronic density on regular grids:         -7.9997703770        0.0002296230
  Core density on regular grids:                8.0002817176        0.0002817176
  Total charge density on r-space grids:        0.0005113406
  Total charge density g-space grids:           0.0005113406

     6 Pulay/Diag. 0.50E+00    0.2     0.00149516       -17.1541098379  9.81E-03

  Trace(PS):                                    8.0000000000
  Electronic density on regular grids:         -7.9997702618        0.0002297382
  Core density on regular grids:                8.0002817176        0.0002817176
  Total charge density on r-space grids:        0.0005114558
  Total charge density g-space grids:           0.0005114558

     7 Pulay/Diag. 0.50E+00    0.2     0.00045049       -17.1506684803  3.44E-03

  Trace(PS):                                    8.0000000000
  Electronic density on regular grids:         -7.9997702166        0.0002297834
  Core density on regular grids:                8.0002817176        0.0002817176
  Total charge density on r-space grids:        0.0005115010
  Total charge density g-space grids:           0.0005115010

     8 Pulay/Diag. 0.50E+00    0.2     0.00021451       -17.1503219031  3.47E-04

  Trace(PS):                                    8.0000000000
  Electronic density on regular grids:         -7.9997701571        0.0002298429
  Core density on regular grids:                8.0002817176        0.0002817176
  Total charge density on r-space grids:        0.0005115605
  Total charge density g-space grids:           0.0005115605

     9 Pulay/Diag. 0.50E+00    0.2     0.00013350       -17.1501988561  1.23E-04

  Trace(PS):                                    8.0000000000
  Electronic density on regular grids:         -7.9997701505        0.0002298495
  Core density on regular grids:                8.0002817176        0.0002817176
  Total charge density on r-space grids:        0.0005115672
  Total charge density g-space grids:           0.0005115672

    10 Pulay/Diag. 0.50E+00    0.2     0.00005096       -17.1501313341  6.75E-05

  Trace(PS):                                    8.0000000000
  Electronic density on regular grids:         -7.9997701429        0.0002298571
  Core density on regular grids:                8.0002817176        0.0002817176
  Total charge density on r-space grids:        0.0005115747
  Total charge density g-space grids:           0.0005115747

    11 Pulay/Diag. 0.50E+00    0.2     0.00002441       -17.1502433871 -1.12E-04

  Trace(PS):                                    8.0000000000
  Electronic density on regular grids:         -7.9997701395        0.0002298605
  Core density on regular grids:                8.0002817176        0.0002817176
  Total charge density on r-space grids:        0.0005115781
  Total charge density g-space grids:           0.0005115781

    12 Pulay/Diag. 0.50E+00    0.2     0.00001173       -17.1502041766  3.92E-05

  Trace(PS):                                    8.0000000000
  Electronic density on regular grids:         -7.9997701385        0.0002298615
  Core density on regular grids:                8.0002817176        0.0002817176
  Total charge density on r-space grids:        0.0005115791
  Total charge density g-space grids:           0.0005115791

    13 Pulay/Diag. 0.50E+00    0.2     0.00000571       -17.1502228248 -1.86E-05

  *** SCF run converged in    13 steps ***


  Electronic density on regular grids:         -7.9997701385        0.0002298615
  Core density on regular grids:                8.0002817176        0.0002817176
  Total charge density on r-space grids:        0.0005115791
  Total charge density g-space grids:           0.0005115791

  Overlap energy of the core charge distribution:               0.00000008790619
  Self energy of the core charge distribution:                -43.83289054591484
  Core Hamiltonian energy:                                     12.86780892516851
  Hartree energy:                                              17.95496964954368
  Exchange-correlation energy:                                 -4.14011094150856

  Total energy:                                               -17.15022282480501


 MULLIKEN POPULATION ANALYSIS

 #  Atom  Element  Kind  Atomic population                Net charge
       1     O        1          6.652041                 -0.652041
       2     H        2          0.675755                  0.324245
       3     H        2          0.672204                  0.327796
 # Total charge                  8.000000                  0.000000


 !-----------------------------------------------------------------------------!
                           Hirschfeld Charges

  #Atom  Element  Kind  Ref Charge     Population                     Net charge
      1       O      1       6.000          6.557                         -0.557
      2       H      2       1.000          0.722                          0.278
      3       H      2       1.000          0.721                          0.279

  Total Charge                                                             0.000
 !-----------------------------------------------------------------------------!

  Trace(PS):                                    8.0000000000
  Electronic density on regular grids:         -7.9997701378        0.0002298622
  Core density on regular grids:                8.0002817176        0.0002817176
  Total charge density on r-space grids:        0.0005115798
  Total charge density g-space grids:           0.0005115798


 ENERGY| Total FORCE_EVAL ( QS ) energy (a.u.):              -17.150209538765413


 DISTRIBUTION OF THE NEIGHBOR LISTS
              Total number of particle pairs:                                  6
              Total number of matrix elements:                               374
              Average number of particle pairs:                                6
              Maximum number of particle pairs:                                6
              Average number of matrix element:                              374
              Maximum number of matrix elements:                             374


 DISTRIBUTION OF THE OVERLAP MATRIX
              Number  of non-zero blocks:                                      6
              Percentage non-zero blocks:                                 100.00
              Average number of blocks per CPU:                                6
              Maximum number of blocks per CPU:                                6
              Average number of matrix elements per CPU:                     384
              Maximum number of matrix elements per CPU:                     384

 Number of electrons:                                                          8
 Number of occupied orbitals:                                                  4
 Number of molecular orbitals:                                                 4

 Number of orbital functions:                                                 23
 Number of independent orbital functions:                                     23

 Parameters for the always stable predictor-corrector (ASPC) method:

  ASPC order: 3

  B(1) =   3.000000
  B(2) =  -3.428571
  B(3) =   1.928571
  B(4) =  -0.571429
  B(5) =   0.071429

 Extrapolation method: ASPC


 SCF WAVEFUNCTION OPTIMIZATION

  Step     Update method      Time    Convergence         Total energy    Change
  ------------------------------------------------------------------------------

  Trace(PS):                                    8.0000000000
  Electronic density on regular grids:         -8.0000101848       -0.0000101848
  Core density on regular grids:                7.9999644196       -0.0000355804
  Total charge density on r-space grids:       -0.0000457652
  Total charge density g-space grids:          -0.0000457652

     1 Pulay/Diag. 0.50E+00    0.1     0.96370449       -17.0796773592 -1.71E+01

  Trace(PS):                                    8.0000000000
  Electronic density on regular grids:         -7.9998878442        0.0001121558
  Core density on regular grids:                7.9999644196       -0.0000355804
  Total charge density on r-space grids:        0.0000765755
  Total charge density g-space grids:           0.0000765755

     2 Pulay/Diag. 0.50E+00    0.1     0.11944662       -17.5682609568 -4.89E-01

  Trace(PS):                                    8.0000000000
  Electronic density on regular grids:         -7.9997746549        0.0002253451
  Core density on regular grids:                7.9999644196       -0.0000355804
  Total charge density on r-space grids:        0.0001897647
  Total charge density g-space grids:           0.0001897647

     3 Pulay/Diag. 0.50E+00    0.2     0.08249762       -17.1336331493  4.35E-01

  Trace(PS):                                    8.0000000000
  Electronic density on regular grids:         -7.9997794796        0.0002205204
  Core density on regular grids:                7.9999644196       -0.0000355804
  Total charge density on r-space grids:        0.0001849401
  Total charge density g-space grids:           0.0001849401

     4 Pulay/Diag. 0.50E+00    0.2     0.03613549       -17.2725390323 -1.39E-01

  Trace(PS):                                    8.0000000000
  Electronic density on regular grids:         -7.9997788629        0.0002211371
  Core density on regular grids:                7.9999644196       -0.0000355804
  Total charge density on r-space grids:        0.0001855568
  Total charge density g-space grids:           0.0001855568

     5 Pulay/Diag. 0.50E+00    0.2     0.00333094       -17.1431688594  1.29E-01

  Trace(PS):                                    8.0000000000
  Electronic density on regular grids:         -7.9997789277        0.0002210723
  Core density on regular grids:                7.9999644196       -0.0000355804
  Total charge density on r-space grids:        0.0001854919
  Total charge density g-space grids:           0.0001854919

     6 Pulay/Diag. 0.50E+00    0.2     0.00054597       -17.1515361982 -8.37E-03

  Trace(PS):                                    8.0000000000
  Electronic density on regular grids:         -7.9997789733        0.0002210267
  Core density on regular grids:                7.9999644196       -0.0000355804
  Total charge density on r-space grids:        0.0001854464
  Total charge density g-space grids:           0.0001854464

     7 Pulay/Diag. 0.50E+00    0.2     0.00016808       -17.1525566448 -1.02E-03

  Trace(PS):                                    8.0000000000
  Electronic density on regular grids:         -7.9997789866        0.0002210134
  Core density on regular grids:                7.9999644196       -0.0000355804
  Total charge density on r-space grids:        0.0001854331
  Total charge density g-space grids:           0.0001854331

     8 Pulay/Diag. 0.50E+00    0.2     0.00010901       -17.1527904588 -2.34E-04

  Trace(PS):                                    8.0000000000
  Electronic density on regular grids:         -7.9997790093        0.0002209907
  Core density on regular grids:                7.9999644196       -0.0000355804
  Total charge density on r-space grids:        0.0001854103
  Total charge density g-space grids:           0.0001854103

     9 Pulay/Diag. 0.50E+00    0.2     0.00005618       -17.1528256241 -3.52E-05

  Trace(PS):                                    8.0000000000
  Electronic density on regular grids:         -7.9997790135        0.0002209865
  Core density on regular grids:                7.9999644196       -0.0000355804
  Total charge density on r-space grids:        0.0001854061
  Total charge density g-space grids:           0.0001854061

    10 Pulay/Diag. 0.50E+00    0.2     0.00002325       -17.1528147449  1.09E-05

  Trace(PS):                                    8.0000000000
  Electronic density on regular grids:         -7.9997790161        0.0002209839
  Core density on regular grids:                7.9999644196       -0.0000355804
  Total charge density on r-space grids:        0.0001854035
  Total charge density g-space grids:           0.0001854035

    11 Pulay/Diag. 0.50E+00    0.2     0.00001234       -17.1527523997  6.23E-05

  Trace(PS):                                    8.0000000000
  Electronic density on regular grids:         -7.9997790181        0.0002209819
  Core density on regular grids:                7.9999644196       -0.0000355804
  Total charge density on r-space grids:        0.0001854016
  Total charge density g-space grids:           0.0001854016

    12 Pulay/Diag. 0.50E+00    0.2     0.00000737       -17.1527661250 -1.37E-05

  *** SCF run converged in    12 steps ***


  Electronic density on regular grids:         -7.9997790181        0.0002209819
  Core density on regular grids:                7.9999644196       -0.0000355804
  Total charge density on r-space grids:        0.0001854016
  Total charge density g-space grids:           0.0001854016

  Overlap energy of the core charge distribution:               0.00000021401870
  Self energy of the core charge distribution:                -43.83289054591484
  Core Hamiltonian energy:                                     12.92626410871956
[...]
  Total charge density on r-space grids:       -0.0034612047
  Total charge density g-space grids:          -0.0034612047

  Overlap energy of the core charge distribution:               0.00000018482025
  Self energy of the core charge distribution:                -43.83289054591484
  Core Hamiltonian energy:                                     12.85960662282066
  Hartree energy:                                              17.89849931877334
  Exchange-correlation energy:                                 -4.13638243992060

  Total energy:                                               -17.21116685942118


 MULLIKEN POPULATION ANALYSIS

 #  Atom  Element  Kind  Atomic population                Net charge
       1     O        1          6.670397                 -0.670397
       2     H        2          0.669858                  0.330142
       3     H        2          0.659745                  0.340255
 # Total charge                  8.000000                  0.000000


 !-----------------------------------------------------------------------------!
                           Hirschfeld Charges

  #Atom  Element  Kind  Ref Charge     Population                     Net charge
      1       O      1       6.000          6.563                         -0.563
      2       H      2       1.000          0.708                          0.292
      3       H      2       1.000          0.729                          0.271

  Total Charge                                                             0.000
 !-----------------------------------------------------------------------------!

  Trace(PS):                                    8.0000000000
  Electronic density on regular grids:         -7.9997523370        0.0002476630
  Core density on regular grids:                7.9962911322       -0.0037088678
  Total charge density on r-space grids:       -0.0034612048
  Total charge density g-space grids:          -0.0034612048


 ENERGY| Total FORCE_EVAL ( QS ) energy (a.u.):              -17.211171205012867


 *******************************************************************************
 ***                 BRENT   - NUMBER OF ENERGY EVALUATIONS :       4        ***
 *******************************************************************************

 --------  Informations at step =     6 ------------
  Optimization Method        =                   CG
  Total Energy               =       -17.2111712050
  Real energy change         =        -0.0000000307
  Decrease in energy         =                  YES
  Used time                  =                7.310

  Convergence check :
  Max. step size             =         0.0000807302
  Conv. limit for step size  =         0.0010000000
  Convergence in step size   =                  YES
  RMS step size              =         0.0000412415
  Conv. limit for RMS step   =         0.0010000000
  Convergence in RMS step    =                  YES
  Max. gradient              =         0.0003245713
  Conv. limit for gradients  =         0.0010000000
  Conv. in gradients         =                  YES
  RMS gradient               =         0.0001658093
  Conv. limit for RMS grad.  =         0.0010000000
  Conv. in RMS gradients     =                  YES
 ---------------------------------------------------

 *******************************************************************************
 ***                    GEOMETRY OPTIMIZATION COMPLETED                      ***
 *******************************************************************************

                    Reevaluating energy at the minimum

 DISTRIBUTION OF THE NEIGHBOR LISTS
              Total number of particle pairs:                                  6
              Total number of matrix elements:                               374
              Average number of particle pairs:                                6
              Maximum number of particle pairs:                                6
              Average number of matrix element:                              374
              Maximum number of matrix elements:                             374


 DISTRIBUTION OF THE OVERLAP MATRIX
              Number  of non-zero blocks:                                      6
              Percentage non-zero blocks:                                 100.00
              Average number of blocks per CPU:                                6
              Maximum number of blocks per CPU:                                6
              Average number of matrix elements per CPU:                     384
              Maximum number of matrix elements per CPU:                     384

 Number of electrons:                                                          8
 Number of occupied orbitals:                                                  4
 Number of molecular orbitals:                                                 4

 Number of orbital functions:                                                 23
 Number of independent orbital functions:                                     23

 Parameters for the always stable predictor-corrector (ASPC) method:

  ASPC order: 3

  B(1) =   3.000000
  B(2) =  -3.428571
  B(3) =   1.928571
  B(4) =  -0.571429
  B(5) =   0.071429

 Extrapolation method: ASPC


 SCF WAVEFUNCTION OPTIMIZATION

  Step     Update method      Time    Convergence         Total energy    Change
  ------------------------------------------------------------------------------

  Trace(PS):                                    8.0000000000
  Electronic density on regular grids:         -7.9997523448        0.0002476552
  Core density on regular grids:                7.9962911322       -0.0037088678
  Total charge density on r-space grids:       -0.0034612126
  Total charge density g-space grids:          -0.0034612126

     1 Pulay/Diag. 0.50E+00    0.1     0.00079457       -17.2111711039 -1.72E+01

  Trace(PS):                                    8.0000000000
  Electronic density on regular grids:         -7.9997523405        0.0002476595
  Core density on regular grids:                7.9962911322       -0.0037088678
  Total charge density on r-space grids:       -0.0034612083
  Total charge density g-space grids:          -0.0034612083

     2 Pulay/Diag. 0.50E+00    0.2     0.00009302       -17.2108692116  3.02E-04

  Trace(PS):                                    8.0000000000
  Electronic density on regular grids:         -7.9997523352        0.0002476648
  Core density on regular grids:                7.9962911322       -0.0037088678
  Total charge density on r-space grids:       -0.0034612030
  Total charge density g-space grids:          -0.0034612030

     3 Pulay/Diag. 0.50E+00    0.2     0.00003449       -17.2112266524 -3.57E-04

  Trace(PS):                                    8.0000000000
  Electronic density on regular grids:         -7.9997523377        0.0002476623
  Core density on regular grids:                7.9962911322       -0.0037088678
  Total charge density on r-space grids:       -0.0034612055
  Total charge density g-space grids:          -0.0034612055

     4 Pulay/Diag. 0.50E+00    0.2     0.00001566       -17.2111189076  1.08E-04

  Trace(PS):                                    8.0000000000
  Electronic density on regular grids:         -7.9997523373        0.0002476627
  Core density on regular grids:                7.9962911322       -0.0037088678
  Total charge density on r-space grids:       -0.0034612052
  Total charge density g-space grids:          -0.0034612052

     5 Pulay/Diag. 0.50E+00    0.2     0.00000155       -17.2111764458 -5.75E-05

  *** SCF run converged in     5 steps ***


  Electronic density on regular grids:         -7.9997523373        0.0002476627
  Core density on regular grids:                7.9962911322       -0.0037088678
  Total charge density on r-space grids:       -0.0034612052
  Total charge density g-space grids:          -0.0034612052

  Overlap energy of the core charge distribution:               0.00000018482019
  Self energy of the core charge distribution:                -43.83289054591484
  Core Hamiltonian energy:                                     12.85959889542240
  Hartree energy:                                              17.89849705434827
  Exchange-correlation energy:                                 -4.13638203448209

  Total energy:                                               -17.21117644580607


 MULLIKEN POPULATION ANALYSIS

 #  Atom  Element  Kind  Atomic population                Net charge
       1     O        1          6.670397                 -0.670397
       2     H        2          0.669858                  0.330142
       3     H        2          0.659745                  0.340255
 # Total charge                  8.000000                  0.000000


 !-----------------------------------------------------------------------------!
                           Hirschfeld Charges

  #Atom  Element  Kind  Ref Charge     Population                     Net charge
      1       O      1       6.000          6.563                         -0.563
      2       H      2       1.000          0.708                          0.292
      3       H      2       1.000          0.729                          0.271

  Total Charge                                                             0.000
 !-----------------------------------------------------------------------------!

 ENERGY| Total FORCE_EVAL ( QS ) energy (a.u.):              -17.211176445806068


 -------------------------------------------------------------------------------
 -                                                                             -
 -                                DBCSR STATISTICS                             -
 -                                                                             -
 -------------------------------------------------------------------------------
 COUNTER                                      CPU                  ACC      ACC%
 number of processed stacks                  2844                    0       0.0
 matmuls inhomo. stacks                         0                    0       0.0
 matmuls total                               4860                    0       0.0
 flops   5 x    4 x    5                   158400                    0       0.0
 flops  13 x    4 x    5                   205920                    0       0.0
 flops   5 x    4 x   13                   205920                    0       0.0
 flops  13 x    5 x    4                   266760                    0       0.0
 flops   5 x   13 x    4                   266760                    0       0.0
 flops  13 x    4 x   13                   267696                    0       0.0
 flops   5 x    5 x    4                   307800                    0       0.0
 flops  13 x   13 x    4                   693576                    0       0.0
 flops total                              2372832                    0       0.0
 marketing flops                          3008952
 -------------------------------------------------------------------------------

 -------------------------------------------------------------------------------
 ----                             MULTIGRID INFO                            ----
 -------------------------------------------------------------------------------
 count for grid        1:           6398          cutoff [a.u.]           50.00
 count for grid        2:           3060          cutoff [a.u.]           16.67
 count for grid        3:            474          cutoff [a.u.]            5.56
 total gridlevel count  :           9932

 -------------------------------------------------------------------------------
 -                                                                             -
 -                         MESSAGE PASSING PERFORMANCE                         -
 -                                                                             -
 -------------------------------------------------------------------------------

 ROUTINE             CALLS  TOT TIME [s]  AVE VOLUME [Bytes]  PERFORMANCE [MB/s]
 MP_Group                4         0.000
 MP_Bcast              468         0.000                  4.                4.69
 MP_Allreduce         6413         0.007                 16.               13.41
 MP_Sync                 3         0.000
 MP_Alltoall         11383         0.007                810.             1307.50
 MP_Wait             17064         0.004
 MP_ISend             5688         0.006               1299.             1246.26
 MP_IRecv             5688         0.003               1299.             2705.60
 MP_Memory           16272         0.006
 -------------------------------------------------------------------------------


 -------------------------------------------------------------------------------
 -                                                                             -
 -                           R E F E R E N C E S                               -
 -                                                                             -
 -------------------------------------------------------------------------------
 
 CP2K version 2.6.2, the CP2K developers group (2015).
 CP2K is freely available from http://www.cp2k.org/ .

 Borstnik, U; VandeVondele, J; Weber, V; Hutter, J. 
 PARALLEL COMPUTING, 40 (5-6), 47-58 (2014). 
 Sparse matrix multiplication: The distributed block-compressed sparse
 row library.
 http://dx.doi.org/10.1016/j.parco.2014.03.012


 Hutter, J; Iannuzzi, M; Schiffmann, F; VandeVondele, J. 
 WILEY INTERDISCIPLINARY REVIEWS-COMPUTATIONAL MOLECULAR SCIENCE, 4 (1), 15-25 (2014). 
 CP2K: atomistic simulations of condensed matter systems.
 http://dx.doi.org/10.1002/wcms.1159


 Krack, M. 
 THEORETICAL CHEMISTRY ACCOUNTS, 114 (1-3), 145-152 (2005). 
 Pseudopotentials for H to Kr optimized for gradient-corrected
 exchange-correlation functionals.
 http://dx.doi.org/10.1007/s00214-005-0655-y


 VandeVondele, J; Krack, M; Mohamed, F; Parrinello, M; Chassaing, T;
 Hutter, J. COMPUTER PHYSICS COMMUNICATIONS, 167 (2), 103-128 (2005). 
 QUICKSTEP: Fast and accurate density functional calculations using a
 mixed Gaussian and plane waves approach.
 http://dx.doi.org/10.1016/j.cpc.2004.12.014


 Frigo, M; Johnson, SG. 
 PROCEEDINGS OF THE IEEE, 93 (2), 216-231 (2005). 
 The design and implementation of FFTW3.
 http://dx.doi.org/10.1109/JPROC.2004.840301


 Kolafa, J. 
 JOURNAL OF COMPUTATIONAL CHEMISTRY, 25 (3), 335-342 (2004). 
 Time-reversible always stable predictor-corrector method for molecular dynamics of polarizable molecules.
 http://dx.doi.org/10.1002/jcc.10385


 Hartwigsen, C; Goedecker, S; Hutter, J. 
 PHYSICAL REVIEW B, 58 (7), 3641-3662 (1998). 
 Relativistic separable dual-space Gaussian pseudopotentials from H to Rn.
 http://dx.doi.org/10.1103/PhysRevB.58.3641


 Lippert, G; Hutter, J; Parrinello, M. 
 MOLECULAR PHYSICS, 92 (3), 477-487 (1997). 
 A hybrid Gaussian and plane wave density functional scheme.
 http://dx.doi.org/10.1080/002689797170220


 Goedecker, S; Teter, M; Hutter, J. 
 PHYSICAL REVIEW B, 54 (3), 1703-1710 (1996). 
 Separable dual-space Gaussian pseudopotentials.
 http://dx.doi.org/10.1103/PhysRevB.54.1703


 -------------------------------------------------------------------------------
 -                                                                             -
 -                                T I M I N G                                  -
 -                                                                             -
 -------------------------------------------------------------------------------
 SUBROUTINE                       CALLS  ASD         SELF TIME        TOTAL TIME
                                MAXIMUM       AVERAGE  MAXIMUM  AVERAGE  MAXIMUM
 CP2K                                 1  1.0    0.002    0.002   76.918   76.918
 cp_geo_opt                           1  2.0    0.000    0.000   76.741   76.741
 geoopt_cg                            1  3.0    0.000    0.000   76.741   76.741
 cp_cg_main                           1  4.0    0.001    0.001   76.741   76.741
 cp_eval_at                          53  8.5    0.003    0.003   76.734   76.734
 qs_energies_scf                     53 10.1    0.002    0.002   74.289   74.289
 cg_linmin                            6  5.0    0.000    0.000   67.125   67.125
 linmin_gold                          6  6.0    0.000    0.000   67.125   67.125
 scf_env_do_scf                      53 11.1    0.003    0.003   67.010   67.010
 scf_env_do_scf_inner_loop          429 12.2    0.036    0.036   67.006   67.006
 qs_forces                           32  9.2    0.001    0.001   51.008   51.008
 fft_wrap_pw1pw2                   4201 16.9    0.051    0.051   45.983   45.983
 fft_wrap_pw1pw2_50                2315 17.4    2.284    2.284   42.494   42.494
 cg_dbrent                            6  7.0    0.000    0.000   42.288   42.288
 cg_deval1d                          26  8.0    0.000    0.000   42.288   42.288
 rebuild_ks_matrix                  461 14.0    0.001    0.001   34.628   34.628
 qs_ks_build_kohn_sham_matrix       461 15.0    0.060    0.060   34.627   34.627
 qs_ks_update_qs_env                429 13.2    0.006    0.006   32.231   32.231
 fft3d_s                           4202 18.9   29.266   29.266   29.281   29.281
 cg_mnbrak                            6  7.0    0.000    0.000   24.837   24.837
 cg_eval1d                           20  8.0    0.000    0.000   24.837   24.837
 qs_rho_update_rho                  482 13.3    0.002    0.002   23.191   23.191
 calculate_rho_elec                 482 14.3    1.633    1.633   23.189   23.189
 density_rs2pw                      482 15.3    0.010    0.010   21.341   21.341
 gspace_mixing                      376 13.2    0.802    0.802   13.610   13.610
 sum_up_and_integrate               461 16.0    0.297    0.297   13.065   13.065
 integrate_v_rspace                 461 17.0    0.980    0.980   12.767   12.767
 potential_pw2rs                    461 18.0    0.049    0.049   11.754   11.754
 qs_vxc_create                      461 16.0    0.006    0.006    8.670    8.670
 xc_vxc_pw_create                   461 17.0    0.973    0.973    8.665    8.665
 xc_rho_set_and_dset_create         461 18.0    0.010    0.010    7.690    7.690
 xc_functional_eval                 461 19.0    7.362    7.362    7.362    7.362
 pw_gather_s                       1960 18.8    7.267    7.267    7.267    7.267
 pw_scatter_s                      2241 19.0    6.902    6.902    6.902    6.902
 pulay_mixing                       376 14.2    6.345    6.345    6.355    6.355
 init_scf_run                        53 11.1    0.003    0.003    5.628    5.628
 scf_env_initial_rho_setup           53 12.1    0.001    0.001    5.617    5.617
 pw_poisson_solve                   461 16.0    2.425    2.425    3.575    3.575
 fft_wrap_pw1pw2_20                 943 18.6    0.167    0.167    3.156    3.156
 mixing_init                         53 13.1    2.922    2.922    2.922    2.922
 wfi_extrapolate                     53 13.1    0.004    0.004    2.634    2.634
 pw_copy                           3227 18.0    2.499    2.499    2.499    2.499
 qs_ks_update_qs_env_forces          32 10.2    0.000    0.000    2.413    2.413
 -------------------------------------------------------------------------------

  **** **** ******  **  PROGRAM ENDED AT                 2016-05-30 14:37:32.937
 ***** ** ***  *** **   PROGRAM RAN ON                       lauri-Lenovo-Z50-70
 **    ****   ******    PROGRAM RAN BY                                     lauri
 ***** **    ** ** **   PROGRAM PROCESS ID                                 11462
  **** **  *******  **  PROGRAM STOPPED IN /home/lauri/Dropbox/nomad-dev/nomad-l
                                           ab-base/parsers/cp2k/test/unittests/c
                                           p2k_2.6.2/geo_opt/geometry_formats/pd
                                           b
