#     Step Nr.          Time[fs]        Kin.[a.u.]          Temp[K]            Pot.[a.u.]        Cons Qty[a.u.]        UsedTime[s]
         0            0.000000         0.007125335       300.000000000       -34.330396471       -34.323271136         0.000000000
         3            1.500000         0.004815598       202.752506973       -34.327998978       -34.323183380         1.837741619
         6            3.000000         0.005184860       218.299664775       -34.328412394       -34.323227533         1.804586368
         9            4.500000         0.005371243       226.146979313       -34.328598255       -34.323227013         1.819971947
