 DBCSR| Multiplication driver                                                SMM
 DBCSR| Multrec recursion limit                                              512
 DBCSR| Multiplication stack size                                           1000
 DBCSR| Multiplication size stacks                                             3
 DBCSR| Use subcommunicators                                                   T
 DBCSR| Use MPI combined types                                                 F
 DBCSR| Use MPI memory allocation                                              T
 DBCSR| Use Communication thread                                               T
 DBCSR| Communication thread load                                             87


  **** **** ******  **  PROGRAM STARTED AT               2016-04-25 14:37:01.503
 ***** ** ***  *** **   PROGRAM STARTED ON                   lauri-Lenovo-Z50-70
 **    ****   ******    PROGRAM STARTED BY                                 lauri
 ***** **    ** ** **   PROGRAM PROCESS ID                                 17262
  **** **  *******  **  PROGRAM STARTED IN /home/lauri/Dropbox/nomad-dev/nomad-l
                                           ab-base/parsers/cp2k/test/unittests/c
                                           p2k_2.6.2/configuration_periodic_dime
                                           nsions/none

 CP2K| version string:                                        CP2K version 2.6.2
 CP2K| source code revision number:                                    svn:15893
 CP2K| is freely available from                             http://www.cp2k.org/
 CP2K| Program compiled at                           ke 4.11.2015 08.48.42 +0200
 CP2K| Program compiled on                                   lauri-Lenovo-Z50-70
 CP2K| Program compiled for                          Linux-x86-64-gfortran_basic
 CP2K| Input file name                                                  none.inp

 GLOBAL| Force Environment number                                              1
 GLOBAL| Basis set file name                                     ../../BASIS_SET
 GLOBAL| Geminal file name                                         BASIS_GEMINAL
 GLOBAL| Potential file name                                ../../GTH_POTENTIALS
 GLOBAL| MM Potential file name                                     MM_POTENTIAL
 GLOBAL| Coordinate file name                                      __STD_INPUT__
 GLOBAL| Method name                                                        CP2K
 GLOBAL| Project name                                                    si_bulk
 GLOBAL| Preferred FFT library                                             FFTW3
 GLOBAL| Preferred diagonalization lib.                                       SL
 GLOBAL| Run type                                                   ENERGY_FORCE
 GLOBAL| All-to-all communication in single precision                          F
 GLOBAL| FFTs using library dependent lengths                                  F
 GLOBAL| Global print level                                               MEDIUM
 GLOBAL| Total number of message passing processes                             1
 GLOBAL| Number of threads for this process                                    1
 GLOBAL| This output is from process                                           0

 MEMORY| system memory details [Kb]
 MEMORY|                        rank 0           min           max       average
 MEMORY| MemTotal              8070380       8070380       8070380       8070380
 MEMORY| MemFree               2376744       2376744       2376744       2376744
 MEMORY| Buffers                937036        937036        937036        937036
 MEMORY| Cached                2262332       2262332       2262332       2262332
 MEMORY| Slab                   505516        505516        505516        505516
 MEMORY| SReclaimable           464552        464552        464552        464552
 MEMORY| MemLikelyFree         6040664       6040664       6040664       6040664


 *** Fundamental physical constants (SI units) ***

 *** Literature: B. J. Mohr and B. N. Taylor,
 ***             CODATA recommended values of the fundamental physical
 ***             constants: 2006, Web Version 5.1
 ***             http://physics.nist.gov/constants

 Speed of light in vacuum [m/s]                             2.99792458000000E+08
 Magnetic constant or permeability of vacuum [N/A**2]       1.25663706143592E-06
 Electric constant or permittivity of vacuum [F/m]          8.85418781762039E-12
 Planck constant (h) [J*s]                                  6.62606896000000E-34
 Planck constant (h-bar) [J*s]                              1.05457162825177E-34
 Elementary charge [C]                                      1.60217648700000E-19
 Electron mass [kg]                                         9.10938215000000E-31
 Electron g factor [ ]                                     -2.00231930436220E+00
 Proton mass [kg]                                           1.67262163700000E-27
 Fine-structure constant                                    7.29735253760000E-03
 Rydberg constant [1/m]                                     1.09737315685270E+07
 Avogadro constant [1/mol]                                  6.02214179000000E+23
 Boltzmann constant [J/K]                                   1.38065040000000E-23
 Atomic mass unit [kg]                                      1.66053878200000E-27
 Bohr radius [m]                                            5.29177208590000E-11

 *** Conversion factors ***

 [u] -> [a.u.]                                              1.82288848426455E+03
 [Angstrom] -> [Bohr] = [a.u.]                              1.88972613288564E+00
 [a.u.] = [Bohr] -> [Angstrom]                              5.29177208590000E-01
 [a.u.] -> [s]                                              2.41888432650478E-17
 [a.u.] -> [fs]                                             2.41888432650478E-02
 [a.u.] -> [J]                                              4.35974393937059E-18
 [a.u.] -> [N]                                              8.23872205491840E-08
 [a.u.] -> [K]                                              3.15774647902944E+05
 [a.u.] -> [kJ/mol]                                         2.62549961709828E+03
 [a.u.] -> [kcal/mol]                                       6.27509468713739E+02
 [a.u.] -> [Pa]                                             2.94210107994716E+13
 [a.u.] -> [bar]                                            2.94210107994716E+08
 [a.u.] -> [atm]                                            2.90362800883016E+08
 [a.u.] -> [eV]                                             2.72113838565563E+01
 [a.u.] -> [Hz]                                             6.57968392072181E+15
 [a.u.] -> [1/cm] (wave numbers)                            2.19474631370540E+05
 [a.u./Bohr**2] -> [1/cm]                                   5.14048714338585E+03
 

 CELL_TOP| Volume [angstrom^3]:                                          160.165
 CELL_TOP| Vector a [angstrom     5.431     0.000     0.000    |a| =       5.431
 CELL_TOP| Vector b [angstrom     0.000     5.431     0.000    |b| =       5.431
 CELL_TOP| Vector c [angstrom     0.000     0.000     5.431    |c| =       5.431
 CELL_TOP| Angle (b,c), alpha [degree]:                                   90.000
 CELL_TOP| Angle (a,c), beta  [degree]:                                   90.000
 CELL_TOP| Angle (a,b), gamma [degree]:                                   90.000
 CELL_TOP| Numerically orthorhombic:                                         YES

 GENERATE|  Preliminary Number of Bonds generated:                             0
 GENERATE|  Achieved consistency in connectivity generation.

 CELL| Volume [angstrom^3]:                                              160.165
 CELL| Vector a [angstrom]:       5.431     0.000     0.000    |a| =       5.431
 CELL| Vector b [angstrom]:       0.000     5.431     0.000    |b| =       5.431
 CELL| Vector c [angstrom]:       0.000     0.000     5.431    |c| =       5.431
 CELL| Angle (b,c), alpha [degree]:                                       90.000
 CELL| Angle (a,c), beta  [degree]:                                       90.000
 CELL| Angle (a,b), gamma [degree]:                                       90.000
 CELL| Numerically orthorhombic:                                             YES

 CELL_REF| Volume [angstrom^3]:                                          160.165
 CELL_REF| Vector a [angstrom     5.431     0.000     0.000    |a| =       5.431
 CELL_REF| Vector b [angstrom     0.000     5.431     0.000    |b| =       5.431
 CELL_REF| Vector c [angstrom     0.000     0.000     5.431    |c| =       5.431
 CELL_REF| Angle (b,c), alpha [degree]:                                   90.000
 CELL_REF| Angle (a,c), beta  [degree]:                                   90.000
 CELL_REF| Angle (a,b), gamma [degree]:                                   90.000
 CELL_REF| Numerically orthorhombic:                                         YES

 *******************************************************************************
 *******************************************************************************
 **                                                                           **
 **     #####                         ##              ##                      **
 **    ##   ##            ##          ##              ##                      **
 **   ##     ##                       ##            ######                    **
 **   ##     ##  ##   ##  ##   #####  ##  ##   ####   ##    #####    #####    **
 **   ##     ##  ##   ##  ##  ##      ## ##   ##      ##   ##   ##  ##   ##   **
 **   ##  ## ##  ##   ##  ##  ##      ####     ###    ##   ######   ######    **
 **    ##  ###   ##   ##  ##  ##      ## ##      ##   ##   ##       ##        **
 **     #######   #####   ##   #####  ##  ##  ####    ##    #####   ##        **
 **           ##                                                    ##        **
 **                                                                           **
 **                                                ... make the atoms dance   **
 **                                                                           **
 **            Copyright (C) by CP2K Developers Group (2000 - 2014)           **
 **                                                                           **
 *******************************************************************************

 DFT| Spin restricted Kohn-Sham (RKS) calculation                            RKS
 DFT| Multiplicity                                                             1
 DFT| Number of spin states                                                    1
 DFT| Charge                                                                   0
 DFT| Self-interaction correction (SIC)                                       NO
 DFT| Cutoffs: density                                              1.000000E-10
 DFT|          gradient                                             1.000000E-10
 DFT|          tau                                                  1.000000E-10
 DFT|          cutoff_smoothing_range                               0.000000E+00
 DFT| XC density smoothing                                                  NONE
 DFT| XC derivatives                                                          PW
 FUNCTIONAL| ROUTINE=NEW
 FUNCTIONAL| PADE:
 FUNCTIONAL| S. Goedecker, M. Teter and J. Hutter, Phys. Rev. B 54, 1703 (1996)

 QS| Method:                                                                 GPW
 QS| Density plane wave grid type                        NON-SPHERICAL FULLSPACE
 QS| Number of grid levels:                                                    2
 QS| Density cutoff [a.u.]:                                                 25.0
 QS| Multi grid cutoff [a.u.]: 1) grid level                                25.0
 QS|                           2) grid level                                 8.3
 QS| Grid level progression factor:                                          3.0
 QS| Relative density cutoff [a.u.]:                                        12.5
 QS| Consistent realspace mapping and integration 
 QS| Interaction thresholds: eps_pgf_orb:                                3.2E-02
 QS|                         eps_filter_matrix:                          0.0E+00
 QS|                         eps_core_charge:                            1.0E-05
 QS|                         eps_rho_gspace:                             1.0E-03
 QS|                         eps_rho_rspace:                             1.0E-03
 QS|                         eps_gvg_rspace:                             3.2E-02
 QS|                         eps_ppl:                                    1.0E-02
 QS|                         eps_ppnl:                                   3.2E-04


 ATOMIC KIND INFORMATION

  1. Atomic kind: Si                                    Number of atoms:       1

     Orbital Basis Set                                             DZVP-GTH-PADE

       Number of orbital shell sets:                                           2
       Number of orbital shells:                                               5
       Number of primitive Cartesian functions:                                5
       Number of Cartesian basis functions:                                   14
       Number of spherical basis functions:                                   13
       Norm type:                                                              2

       Normalised Cartesian orbitals:

                        Set   Shell   Orbital            Exponent    Coefficient

                          1       1    3s                1.203242       0.269412
                                                         0.468841      -0.102290
                                                         0.167986      -0.147195
                                                         0.057562      -0.015996

                          1       2    4s                1.203242       0.000000
                                                         0.468841       0.000000
                                                         0.167986       0.000000
                                                         0.057562       0.083755

                          1       3    4px               1.203242       0.085242
                                                         0.468841      -0.143473
                                                         0.167986      -0.083408
                                                         0.057562      -0.014565
                          1       3    4py               1.203242       0.085242
                                                         0.468841      -0.143473
                                                         0.167986      -0.083408
                                                         0.057562      -0.014565
                          1       3    4pz               1.203242       0.085242
                                                         0.468841      -0.143473
                                                         0.167986      -0.083408
                                                         0.057562      -0.014565

                          1       4    5px               1.203242       0.000000
                                                         0.468841       0.000000
                                                         0.167986       0.000000
                                                         0.057562       0.040189
                          1       4    5py               1.203242       0.000000
                                                         0.468841       0.000000
                                                         0.167986       0.000000
                                                         0.057562       0.040189
                          1       4    5pz               1.203242       0.000000
                                                         0.468841       0.000000
                                                         0.167986       0.000000
                                                         0.057562       0.040189

                          2       1    3dx2              0.450000       0.406941
                          2       1    3dxy              0.450000       0.704842
                          2       1    3dxz              0.450000       0.704842
                          2       1    3dy2              0.450000       0.406941
                          2       1    3dyz              0.450000       0.704842
                          2       1    3dz2              0.450000       0.406941

     Potential information for                                       GTH-PADE-q4

       Description:                       Goedecker-Teter-Hutter pseudopotential
                                           Goedecker et al., PRB 54, 1703 (1996)
                                          Hartwigsen et al., PRB 58, 3641 (1998)
                                                      Krack, TCA 114, 145 (2005)

       Gaussian exponent of the core charge distribution:               2.582645
       Electronic configuration (s p d ...):                               2   2

       Parameters of the local part of the GTH pseudopotential:

                          rloc        C1          C2          C3          C4
                        0.440000   -7.336103

       Parameters of the non-local part of the GTH pseudopotential:

                   l      r(l)      h(i,j,l)

                   0    0.422738    5.906928   -1.261894
                                   -1.261894    3.258196
                   1    0.484278    2.727013


 MOLECULE KIND INFORMATION


 All atoms are their own molecule, skipping detailed information


 TOTAL NUMBERS AND MAXIMUM NUMBERS

  Total number of            - Atomic kinds:                                   1
                             - Atoms:                                          1
                             - Shell sets:                                     2
                             - Shells:                                         5
                             - Primitive Cartesian functions:                  5
                             - Cartesian basis functions:                     14
                             - Spherical basis functions:                     13

  Maximum angular momentum of- Orbital basis functions:                        2
                             - Local part of the GTH pseudopotential:          0
                             - Non-local part of the GTH pseudopotential:      2


 MODULE QUICKSTEP:  ATOMIC COORDINATES IN angstrom

  Atom  Kind  Element       X           Y           Z          Z(eff)       Mass

       1     1 Si  14    0.000000    0.000000    0.000000      4.00      28.0855




 SCF PARAMETERS         Density guess:                                    ATOMIC
                        --------------------------------------------------------
                        max_scf:                                             100
                        max_scf_history:                                       0
                        max_diis:                                              4
                        --------------------------------------------------------
                        eps_scf:                                        1.00E-03
                        eps_scf_history:                                0.00E+00
                        eps_diis:                                       1.00E-01
                        eps_eigval:                                     1.00E-05
                        --------------------------------------------------------
                        level_shift [a.u.]:                                 0.00
                        --------------------------------------------------------
                        Mixing method:                           DIRECT_P_MIXING
                        --------------------------------------------------------
                        No outer SCF

 PW_GRID| Information for grid number                                          1
 PW_GRID| Cutoff [a.u.]                                                     25.0
 PW_GRID| spherical cutoff:                                                   NO
 PW_GRID|   Bounds   1            -12      11                Points:          24
 PW_GRID|   Bounds   2            -12      11                Points:          24
 PW_GRID|   Bounds   3            -12      11                Points:          24
 PW_GRID| Volume element (a.u.^3)  0.7819E-01     Volume (a.u.^3)      1080.8451
 PW_GRID| Grid span                                                    FULLSPACE

 PW_GRID| Information for grid number                                          2
 PW_GRID| Cutoff [a.u.]                                                      8.3
 PW_GRID| spherical cutoff:                                                   NO
 PW_GRID|   Bounds   1             -7       7                Points:          15
 PW_GRID|   Bounds   2             -7       7                Points:          15
 PW_GRID|   Bounds   3             -7       7                Points:          15
 PW_GRID| Volume element (a.u.^3)  0.3203         Volume (a.u.^3)      1080.8451
 PW_GRID| Grid span                                                    FULLSPACE

 POISSON| Solver                                                        PERIODIC
 POISSON| Periodicity                                                        XYZ

 RS_GRID| Information for grid number                                          1
 RS_GRID|   Bounds   1            -12      11                Points:          24
 RS_GRID|   Bounds   2            -12      11                Points:          24
 RS_GRID|   Bounds   3            -12      11                Points:          24

 RS_GRID| Information for grid number                                          2
 RS_GRID|   Bounds   1             -7       7                Points:          15
 RS_GRID|   Bounds   2             -7       7                Points:          15
 RS_GRID|   Bounds   3             -7       7                Points:          15

 DISTRIBUTION OF THE PARTICLES (ROWS)
              Process row      Number of particles         Number of matrix rows
                        0                        1                            -1
                      Sum                        1                            -1

 DISTRIBUTION OF THE PARTICLES (COLUMNS)
              Process col      Number of particles      Number of matrix columns
                        0                        1                            -1
                      Sum                        1                            -1

 DISTRIBUTION OF THE NEIGHBOR LISTS
              Total number of particle pairs:                                  1
              Total number of matrix elements:                               169
              Average number of particle pairs:                                1
              Maximum number of particle pairs:                                1
              Average number of matrix element:                              169
              Maximum number of matrix elements:                             169


 DISTRIBUTION OF THE OVERLAP MATRIX
              Number  of non-zero blocks:                                      1
              Percentage non-zero blocks:                                 100.00
              Average number of blocks per CPU:                                1
              Maximum number of blocks per CPU:                                1
              Average number of matrix elements per CPU:                     179
              Maximum number of matrix elements per CPU:                     179

 Number of electrons:                                                          4
 Number of occupied orbitals:                                                  2
 Number of molecular orbitals:                                                 2

 Number of orbital functions:                                                 13
 Number of independent orbital functions:                                     13

 Extrapolation method: initial_guess

 Atomic guess: The first density matrix is obtained in terms of atomic orbitals
               and electronic configurations assigned to each atomic kind

 Guess for atomic kind: Si

 Electronic structure
    Total number of core electrons                                         10.00
    Total number of valence electrons                                       4.00
    Total number of electrons                                              14.00
    Multiplicity                                                   not specified
    S   [  2.00  2.00] 2.00
    P   [  6.00] 2.00


 *******************************************************************************
                  Iteration          Convergence                     Energy [au]
 *******************************************************************************
                          1        0.191310                      -3.618313869735
                          2        0.731569E-01                  -3.691159009622
                          3        0.405574E-02                  -3.699900512584
                          4        0.328704E-02                  -3.699908407293
                          5        0.320845E-02                  -3.699909118998
                          6        0.316809E-02                  -3.699909477757
                          7        0.331859E-05                  -3.699923449535
                          8        0.110258E-06                  -3.699923449550

 Energy components [Hartree]           Total Energy ::           -3.699923449550
                                        Band Energy ::           -1.012729790251
                                     Kinetic Energy ::            1.397012768229
                                   Potential Energy ::           -5.096936217779
                                      Virial (-V/T) ::            3.648453567279
                                        Core Energy ::           -5.703543362687
                                          XC Energy ::           -0.980691562795
                                     Coulomb Energy ::            2.984311475932
                       Total Pseudopotential Energy ::           -7.145739758818
                       Local Pseudopotential Energy ::           -7.987908627736
                    Nonlocal Pseudopotential Energy ::            0.842168868918
                                        Confinement ::            0.451836279031

 Orbital energies  State     L     Occupation   Energy[a.u.]          Energy[eV]

                       1     0          2.000      -0.378230          -10.292155

                       1     1          2.000      -0.128135           -3.486734

 Re-scaling the density matrix to get the right number of electrons
                  # Electrons              Trace(P)               Scaling factor
                            4                 4.000                        1.000


 SCF WAVEFUNCTION OPTIMIZATION

  Step     Update method      Time    Convergence         Total energy    Change
  ------------------------------------------------------------------------------

  Trace(PS):                                    4.0000000000
  Electronic density on regular grids:         -3.9999050415        0.0000949585
  Core density on regular grids:                3.9961648024       -0.0038351976
  Total charge density on r-space grids:       -0.0037402391
  Total charge density g-space grids:          -0.0037402391

     1 P_Mix/Diag. 0.40E+00    0.0     0.65959182        -3.7487854664 -3.75E+00

  Trace(PS):                                    4.0000000000
  Electronic density on regular grids:         -3.9999131884        0.0000868116
  Core density on regular grids:                3.9961648024       -0.0038351976
  Total charge density on r-space grids:       -0.0037483860
  Total charge density g-space grids:          -0.0037483860

     2 P_Mix/Diag. 0.40E+00    0.0     0.97439310        -3.7467485486  2.04E-03

  Trace(PS):                                    4.0000000000
  Electronic density on regular grids:         -3.9999169020        0.0000830980
  Core density on regular grids:                3.9961648024       -0.0038351976
  Total charge density on r-space grids:       -0.0037520996
  Total charge density g-space grids:          -0.0037520996

     3 P_Mix/Diag. 0.40E+00    0.0     1.03697647        -3.7478410602 -1.09E-03

  Trace(PS):                                    4.0000000000
  Electronic density on regular grids:         -3.9998968888        0.0001031112
  Core density on regular grids:                3.9961648024       -0.0038351976
  Total charge density on r-space grids:       -0.0037320864
  Total charge density g-space grids:          -0.0037320864

     4 P_Mix/Diag. 0.40E+00    0.0     0.91812527        -3.7490831008 -1.24E-03

  Trace(PS):                                    4.0000000000
  Electronic density on regular grids:         -3.9999087952        0.0000912048
  Core density on regular grids:                3.9961648024       -0.0038351976
  Total charge density on r-space grids:       -0.0037439928
  Total charge density g-space grids:          -0.0037439928

     5 P_Mix/Diag. 0.40E+00    0.0     0.98133652        -3.7484988725  5.84E-04

  Trace(PS):                                    4.0000000000
  Electronic density on regular grids:         -3.9999129751        0.0000870249
  Core density on regular grids:                3.9961648024       -0.0038351976
  Total charge density on r-space grids:       -0.0037481728
  Total charge density g-space grids:          -0.0037481728

     6 P_Mix/Diag. 0.40E+00    0.0     1.03815590        -3.7485924166 -9.35E-05

  Trace(PS):                                    4.0000000000
  Electronic density on regular grids:         -3.9998964807        0.0001035193
  Core density on regular grids:                3.9961648024       -0.0038351976
  Total charge density on r-space grids:       -0.0037316783
  Total charge density g-space grids:          -0.0037316783

     7 P_Mix/Diag. 0.40E+00    0.0     0.95969582        -3.7489402851 -3.48E-04

  Trace(PS):                                    4.0000000000
  Electronic density on regular grids:         -3.9999085236        0.0000914764
  Core density on regular grids:                3.9961648024       -0.0038351976
  Total charge density on r-space grids:       -0.0037437212
  Total charge density g-space grids:          -0.0037437212

     8 P_Mix/Diag. 0.40E+00    0.0     1.02458362        -3.7487756070  1.65E-04

  Trace(PS):                                    4.0000000000
  Electronic density on regular grids:         -3.9999114962        0.0000885038
  Core density on regular grids:                3.9961648024       -0.0038351976
  Total charge density on r-space grids:       -0.0037466938
  Total charge density g-space grids:          -0.0037466938

     9 P_Mix/Diag. 0.40E+00    0.0     1.02759116        -3.7486938942  8.17E-05

  Trace(PS):                                    4.0000000000
  Electronic density on regular grids:         -3.9998969573        0.0001030427
  Core density on regular grids:                3.9961648024       -0.0038351976
  Total charge density on r-space grids:       -0.0037321549
  Total charge density g-space grids:          -0.0037321549

    10 P_Mix/Diag. 0.40E+00    0.0     0.92825940        -3.7488934694 -2.00E-04

  Trace(PS):                                    4.0000000000
  Electronic density on regular grids:         -3.9999088953        0.0000911047
  Core density on regular grids:                3.9961648024       -0.0038351976
  Total charge density on r-space grids:       -0.0037440929
  Total charge density g-space grids:          -0.0037440929

    11 P_Mix/Diag. 0.40E+00    0.0     1.08106993        -3.7488016182  9.19E-05

  Trace(PS):                                    4.0000000000
  Electronic density on regular grids:         -3.9999105522        0.0000894478
  Core density on regular grids:                3.9961648024       -0.0038351976
  Total charge density on r-space grids:       -0.0037457498
  Total charge density g-space grids:          -0.0037457498

    12 P_Mix/Diag. 0.40E+00    0.0     0.97180163        -3.7486769190  1.25E-04

  Trace(PS):                                    4.0000000000
  Electronic density on regular grids:         -3.9998976779        0.0001023221
  Core density on regular grids:                3.9961648024       -0.0038351976
  Total charge density on r-space grids:       -0.0037328755
  Total charge density g-space grids:          -0.0037328755

    13 P_Mix/Diag. 0.40E+00    0.0     0.95776114        -3.7488023890 -1.25E-04

  Trace(PS):                                    4.0000000000
  Electronic density on regular grids:         -3.9999090984        0.0000909016
  Core density on regular grids:                3.9961648024       -0.0038351976
  Total charge density on r-space grids:       -0.0037442960
  Total charge density g-space grids:          -0.0037442960

    14 P_Mix/Diag. 0.40E+00    0.0     1.26749484        -3.7486993066  1.03E-04

  Trace(PS):                                    4.0000000000
  Electronic density on regular grids:         -3.9999091083        0.0000908917
  Core density on regular grids:                3.9961648024       -0.0038351976
  Total charge density on r-space grids:       -0.0037443060
  Total charge density g-space grids:          -0.0037443060

    15 P_Mix/Diag. 0.40E+00    0.0     1.30759941        -3.7485749969  1.24E-04

  Trace(PS):                                    4.0000000000
  Electronic density on regular grids:         -3.9998997944        0.0001002056
  Core density on regular grids:                3.9961648024       -0.0038351976
  Total charge density on r-space grids:       -0.0037349920
  Total charge density g-space grids:          -0.0037349920

    16 P_Mix/Diag. 0.40E+00    0.0     1.36764760        -3.7486067075 -3.17E-05

  Trace(PS):                                    4.0000000000
  Electronic density on regular grids:         -3.9999079365        0.0000920635
  Core density on regular grids:                3.9961648024       -0.0038351976
  Total charge density on r-space grids:       -0.0037431341
  Total charge density g-space grids:          -0.0037431341

    17 P_Mix/Diag. 0.40E+00    0.0     1.50011559        -3.7485163497  9.04E-05

  Trace(PS):                                    4.0000000000
  Electronic density on regular grids:         -3.9999070097        0.0000929903
  Core density on regular grids:                3.9961648024       -0.0038351976
  Total charge density on r-space grids:       -0.0037422073
  Total charge density g-space grids:          -0.0037422073

    18 P_Mix/Diag. 0.40E+00    0.0     1.53283658        -3.7484672657  4.91E-05

  Trace(PS):                                    4.0000000000
  Electronic density on regular grids:         -3.9999029527        0.0000970473
  Core density on regular grids:                3.9961648024       -0.0038351976
  Total charge density on r-space grids:       -0.0037381504
  Total charge density g-space grids:          -0.0037381504

    19 P_Mix/Diag. 0.40E+00    0.0     1.55176975        -3.7484752090 -7.94E-06

  Trace(PS):                                    4.0000000000
  Electronic density on regular grids:         -3.9999063873        0.0000936127
  Core density on regular grids:                3.9961648024       -0.0038351976
  Total charge density on r-space grids:       -0.0037415850
  Total charge density g-space grids:          -0.0037415850

    20 P_Mix/Diag. 0.40E+00    0.0     1.57324526        -3.7484531969  2.20E-05

  Trace(PS):                                    4.0000000000
  Electronic density on regular grids:         -3.9999058832        0.0000941168
  Core density on regular grids:                3.9961648024       -0.0038351976
  Total charge density on r-space grids:       -0.0037410809
  Total charge density g-space grids:          -0.0037410809

    21 P_Mix/Diag. 0.40E+00    0.0     1.57858422        -3.7484457732  7.42E-06

  Trace(PS):                                    4.0000000000
  Electronic density on regular grids:         -3.9999045893        0.0000954107
  Core density on regular grids:                3.9961648024       -0.0038351976
  Total charge density on r-space grids:       -0.0037397869
  Total charge density g-space grids:          -0.0037397869

    22 P_Mix/Diag. 0.40E+00    0.0     1.58048292        -3.7484488240 -3.05E-06

  Trace(PS):                                    4.0000000000
  Electronic density on regular grids:         -3.9999057033        0.0000942967
  Core density on regular grids:                3.9961648024       -0.0038351976
  Total charge density on r-space grids:       -0.0037409009
  Total charge density g-space grids:          -0.0037409009

    23 P_Mix/Diag. 0.40E+00    0.0     1.58276701        -3.7484450867  3.74E-06

  Trace(PS):                                    4.0000000000
  Electronic density on regular grids:         -3.9999055288        0.0000944712
  Core density on regular grids:                3.9961648024       -0.0038351976
  Total charge density on r-space grids:       -0.0037407265
  Total charge density g-space grids:          -0.0037407265

    24 P_Mix/Diag. 0.40E+00    0.0     1.58342859        -3.7484440741  1.01E-06

  Trace(PS):                                    4.0000000000
  Electronic density on regular grids:         -3.9999051367        0.0000948633
  Core density on regular grids:                3.9961648024       -0.0038351976
  Total charge density on r-space grids:       -0.0037403344
  Total charge density g-space grids:          -0.0037403344

    25 P_Mix/Diag. 0.40E+00    0.0     1.58353651        -3.7484447777 -7.04E-07

  Trace(PS):                                    4.0000000000
  Electronic density on regular grids:         -3.9999054782        0.0000945218
  Core density on regular grids:                3.9961648024       -0.0038351976
  Total charge density on r-space grids:       -0.0037406759
  Total charge density g-space grids:          -0.0037406759

    26 P_Mix/Diag. 0.40E+00    0.0     1.58377201        -3.7484441500  6.28E-07

  Trace(PS):                                    4.0000000000
  Electronic density on regular grids:         -3.9999054235        0.0000945765
  Core density on regular grids:                3.9961648024       -0.0038351976
  Total charge density on r-space grids:       -0.0037406211
  Total charge density g-space grids:          -0.0037406211

    27 P_Mix/Diag. 0.40E+00    0.0     1.58385870        -3.7484439961  1.54E-07

  Trace(PS):                                    4.0000000000
  Electronic density on regular grids:         -3.9999053049        0.0000946951
  Core density on regular grids:                3.9961648024       -0.0038351976
  Total charge density on r-space grids:       -0.0037405026
  Total charge density g-space grids:          -0.0037405026

    28 P_Mix/Diag. 0.40E+00    0.0     1.58385396        -3.7484441246 -1.29E-07

  Trace(PS):                                    4.0000000000
  Electronic density on regular grids:         -3.9999054086        0.0000945914
  Core density on regular grids:                3.9961648024       -0.0038351976
  Total charge density on r-space grids:       -0.0037406062
  Total charge density g-space grids:          -0.0037406062

    29 P_Mix/Diag. 0.40E+00    0.0     1.58387993        -3.7484440201  1.04E-07

  Trace(PS):                                    4.0000000000
  Electronic density on regular grids:         -3.9999053918        0.0000946082
  Core density on regular grids:                3.9961648024       -0.0038351976
  Total charge density on r-space grids:       -0.0037405894
  Total charge density g-space grids:          -0.0037405894

    30 P_Mix/Diag. 0.40E+00    0.0     1.58389264        -3.7484439939  2.62E-08

  Trace(PS):                                    4.0000000000
  Electronic density on regular grids:         -3.9999053559        0.0000946441
  Core density on regular grids:                3.9961648024       -0.0038351976
  Total charge density on r-space grids:       -0.0037405535
  Total charge density g-space grids:          -0.0037405535

    31 P_Mix/Diag. 0.40E+00    0.0     1.58388953        -3.7484440136 -1.97E-08

  Trace(PS):                                    4.0000000000
  Electronic density on regular grids:         -3.9999053873        0.0000946127
  Core density on regular grids:                3.9961648024       -0.0038351976
  Total charge density on r-space grids:       -0.0037405849
  Total charge density g-space grids:          -0.0037405849

    32 P_Mix/Diag. 0.40E+00    0.0     1.58389269        -3.7484439971  1.65E-08

  Trace(PS):                                    4.0000000000
  Electronic density on regular grids:         -3.9999053822        0.0000946178
  Core density on regular grids:                3.9961648024       -0.0038351976
  Total charge density on r-space grids:       -0.0037405798
  Total charge density g-space grids:          -0.0037405798

    33 P_Mix/Diag. 0.40E+00    0.0     1.58389475        -3.7484439922  4.91E-09

  Trace(PS):                                    4.0000000000
  Electronic density on regular grids:         -3.9999053713        0.0000946287
  Core density on regular grids:                3.9961648024       -0.0038351976
  Total charge density on r-space grids:       -0.0037405689
  Total charge density g-space grids:          -0.0037405689

    34 P_Mix/Diag. 0.40E+00    0.0     1.58389403        -3.7484439944 -2.22E-09

  Trace(PS):                                    4.0000000000
  Electronic density on regular grids:         -3.9999053808        0.0000946192
  Core density on regular grids:                3.9961648024       -0.0038351976
  Total charge density on r-space grids:       -0.0037405784
  Total charge density g-space grids:          -0.0037405784

    35 P_Mix/Diag. 0.40E+00    0.0     1.58389444        -3.7484439922  2.22E-09

  Trace(PS):                                    4.0000000000
  Electronic density on regular grids:         -3.9999053792        0.0000946208
  Core density on regular grids:                3.9961648024       -0.0038351976
  Total charge density on r-space grids:       -0.0037405769
  Total charge density g-space grids:          -0.0037405769

    36 P_Mix/Diag. 0.40E+00    0.0     1.58389479        -3.7484439912  9.96E-10

  Trace(PS):                                    4.0000000000
  Electronic density on regular grids:         -3.9999053759        0.0000946241
  Core density on regular grids:                3.9961648024       -0.0038351976
  Total charge density on r-space grids:       -0.0037405736
  Total charge density g-space grids:          -0.0037405736

    37 P_Mix/Diag. 0.40E+00    0.0     1.58389467        -3.7484439912 -1.43E-12

  Trace(PS):                                    4.0000000000
  Electronic density on regular grids:         -3.9999053788        0.0000946212
  Core density on regular grids:                3.9961648024       -0.0038351976
  Total charge density on r-space grids:       -0.0037405765
  Total charge density g-space grids:          -0.0037405765

    38 P_Mix/Diag. 0.40E+00    0.0     1.58389472        -3.7484439910  1.69E-10

  Trace(PS):                                    4.0000000000
  Electronic density on regular grids:         -3.9999053784        0.0000946216
  Core density on regular grids:                3.9961648024       -0.0038351976
  Total charge density on r-space grids:       -0.0037405760
  Total charge density g-space grids:          -0.0037405760

    39 P_Mix/Diag. 0.40E+00    0.0     1.58389478        -3.7484439908  2.19E-10

  Trace(PS):                                    4.0000000000
  Electronic density on regular grids:         -3.9999053774        0.0000946226
  Core density on regular grids:                3.9961648024       -0.0038351976
  Total charge density on r-space grids:       -0.0037405750
  Total charge density g-space grids:          -0.0037405750

    40 P_Mix/Diag. 0.40E+00    0.0     1.58389477        -3.7484439907  1.13E-10

  Trace(PS):                                    4.0000000000
  Electronic density on regular grids:         -3.9999053782        0.0000946218
  Core density on regular grids:                3.9961648024       -0.0038351976
  Total charge density on r-space grids:       -0.0037405759
  Total charge density g-space grids:          -0.0037405759

    41 P_Mix/Diag. 0.40E+00    0.0     1.58389477        -3.7484439907 -4.13E-11

  Trace(PS):                                    4.0000000000
  Electronic density on regular grids:         -3.9999053781        0.0000946219
  Core density on regular grids:                3.9961648024       -0.0038351976
  Total charge density on r-space grids:       -0.0037405757
  Total charge density g-space grids:          -0.0037405757

    42 P_Mix/Diag. 0.40E+00    0.0     1.58389479        -3.7484439907  5.21E-11

  Trace(PS):                                    4.0000000000
  Electronic density on regular grids:         -3.9999053778        0.0000946222
  Core density on regular grids:                3.9961648024       -0.0038351976
  Total charge density on r-space grids:       -0.0037405754
  Total charge density g-space grids:          -0.0037405754

    43 P_Mix/Diag. 0.40E+00    0.0     1.58389479        -3.7484439906  5.18E-11

  Trace(PS):                                    4.0000000000
  Electronic density on regular grids:         -3.9999053780        0.0000946220
  Core density on regular grids:                3.9961648024       -0.0038351976
  Total charge density on r-space grids:       -0.0037405757
  Total charge density g-space grids:          -0.0037405757

    44 P_Mix/Diag. 0.40E+00    0.0     1.58389478        -3.7484439907 -2.93E-11

  Trace(PS):                                    4.0000000000
  Electronic density on regular grids:         -3.9999053780        0.0000946220
  Core density on regular grids:                3.9961648024       -0.0038351976
  Total charge density on r-space grids:       -0.0037405756
  Total charge density g-space grids:          -0.0037405756

    45 P_Mix/Diag. 0.40E+00    0.0     1.58389479        -3.7484439906  1.34E-11

  Trace(PS):                                    4.0000000000
  Electronic density on regular grids:         -3.9999053779        0.0000946221
  Core density on regular grids:                3.9961648024       -0.0038351976
  Total charge density on r-space grids:       -0.0037405755
  Total charge density g-space grids:          -0.0037405755

    46 P_Mix/Diag. 0.40E+00    0.0     1.58389479        -3.7484439906  1.82E-11

  Trace(PS):                                    4.0000000000
  Electronic density on regular grids:         -3.9999053780        0.0000946220
  Core density on regular grids:                3.9961648024       -0.0038351976
  Total charge density on r-space grids:       -0.0037405756
  Total charge density g-space grids:          -0.0037405756

    47 P_Mix/Diag. 0.40E+00    0.0     1.58389479        -3.7484439906 -1.19E-11

  Trace(PS):                                    4.0000000000
  Electronic density on regular grids:         -3.9999053780        0.0000946220
  Core density on regular grids:                3.9961648024       -0.0038351976
  Total charge density on r-space grids:       -0.0037405756
  Total charge density g-space grids:          -0.0037405756

    48 P_Mix/Diag. 0.40E+00    0.0     1.58389479        -3.7484439906  3.68E-12

  Trace(PS):                                    4.0000000000
  Electronic density on regular grids:         -3.9999053779        0.0000946221
  Core density on regular grids:                3.9961648024       -0.0038351976
  Total charge density on r-space grids:       -0.0037405756
  Total charge density g-space grids:          -0.0037405756

    49 P_Mix/Diag. 0.40E+00    0.0     1.58389479        -3.7484439906  5.77E-12

  Trace(PS):                                    4.0000000000
  Electronic density on regular grids:         -3.9999053780        0.0000946220
  Core density on regular grids:                3.9961648024       -0.0038351976
  Total charge density on r-space grids:       -0.0037405756
  Total charge density g-space grids:          -0.0037405756

    50 P_Mix/Diag. 0.40E+00    0.0     1.58389479        -3.7484439906 -4.12E-12

  Trace(PS):                                    4.0000000000
  Electronic density on regular grids:         -3.9999053780        0.0000946220
  Core density on regular grids:                3.9961648024       -0.0038351976
  Total charge density on r-space grids:       -0.0037405756
  Total charge density g-space grids:          -0.0037405756

    51 P_Mix/Diag. 0.40E+00    0.0     1.58389479        -3.7484439906  1.06E-12

  Trace(PS):                                    4.0000000000
  Electronic density on regular grids:         -3.9999053780        0.0000946220
  Core density on regular grids:                3.9961648024       -0.0038351976
  Total charge density on r-space grids:       -0.0037405756
  Total charge density g-space grids:          -0.0037405756

    52 P_Mix/Diag. 0.40E+00    0.0     1.58389479        -3.7484439906  1.75E-12

  Trace(PS):                                    4.0000000000
  Electronic density on regular grids:         -3.9999053780        0.0000946220
  Core density on regular grids:                3.9961648024       -0.0038351976
  Total charge density on r-space grids:       -0.0037405756
  Total charge density g-space grids:          -0.0037405756

    53 P_Mix/Diag. 0.40E+00    0.0     1.58389479        -3.7484439906 -1.34E-12

  Trace(PS):                                    4.0000000000
  Electronic density on regular grids:         -3.9999053780        0.0000946220
  Core density on regular grids:                3.9961648024       -0.0038351976
  Total charge density on r-space grids:       -0.0037405756
  Total charge density g-space grids:          -0.0037405756

    54 P_Mix/Diag. 0.40E+00    0.0     1.58389479        -3.7484439906  3.13E-13

  Trace(PS):                                    4.0000000000
  Electronic density on regular grids:         -3.9999053780        0.0000946220
  Core density on regular grids:                3.9961648024       -0.0038351976
  Total charge density on r-space grids:       -0.0037405756
  Total charge density g-space grids:          -0.0037405756

    55 P_Mix/Diag. 0.40E+00    0.0     1.58389479        -3.7484439906  5.21E-13

  Trace(PS):                                    4.0000000000
  Electronic density on regular grids:         -3.9999053780        0.0000946220
  Core density on regular grids:                3.9961648024       -0.0038351976
  Total charge density on r-space grids:       -0.0037405756
  Total charge density g-space grids:          -0.0037405756

    56 P_Mix/Diag. 0.40E+00    0.0     1.58389479        -3.7484439906 -4.22E-13

  Trace(PS):                                    4.0000000000
  Electronic density on regular grids:         -3.9999053780        0.0000946220
  Core density on regular grids:                3.9961648024       -0.0038351976
  Total charge density on r-space grids:       -0.0037405756
  Total charge density g-space grids:          -0.0037405756

    57 P_Mix/Diag. 0.40E+00    0.0     1.58389479        -3.7484439906  9.59E-14

  Trace(PS):                                    4.0000000000
  Electronic density on regular grids:         -3.9999053780        0.0000946220
  Core density on regular grids:                3.9961648024       -0.0038351976
  Total charge density on r-space grids:       -0.0037405756
  Total charge density g-space grids:          -0.0037405756

    58 P_Mix/Diag. 0.40E+00    0.0     1.58389479        -3.7484439906  1.53E-13

  Trace(PS):                                    4.0000000000
  Electronic density on regular grids:         -3.9999053780        0.0000946220
  Core density on regular grids:                3.9961648024       -0.0038351976
  Total charge density on r-space grids:       -0.0037405756
  Total charge density g-space grids:          -0.0037405756

    59 P_Mix/Diag. 0.40E+00    0.0     1.58389479        -3.7484439906 -1.31E-13

  Trace(PS):                                    4.0000000000
  Electronic density on regular grids:         -3.9999053780        0.0000946220
  Core density on regular grids:                3.9961648024       -0.0038351976
  Total charge density on r-space grids:       -0.0037405756
  Total charge density g-space grids:          -0.0037405756

    60 P_Mix/Diag. 0.40E+00    0.0     1.58389479        -3.7484439906  2.93E-14

  Trace(PS):                                    4.0000000000
  Electronic density on regular grids:         -3.9999053780        0.0000946220
  Core density on regular grids:                3.9961648024       -0.0038351976
  Total charge density on r-space grids:       -0.0037405756
  Total charge density g-space grids:          -0.0037405756

    61 P_Mix/Diag. 0.40E+00    0.0     1.58389479        -3.7484439906  4.35E-14

  Trace(PS):                                    4.0000000000
  Electronic density on regular grids:         -3.9999053780        0.0000946220
  Core density on regular grids:                3.9961648024       -0.0038351976
  Total charge density on r-space grids:       -0.0037405756
  Total charge density g-space grids:          -0.0037405756

    62 P_Mix/Diag. 0.40E+00    0.0     1.58389479        -3.7484439906 -3.91E-14

  Trace(PS):                                    4.0000000000
  Electronic density on regular grids:         -3.9999053780        0.0000946220
  Core density on regular grids:                3.9961648024       -0.0038351976
  Total charge density on r-space grids:       -0.0037405756
  Total charge density g-space grids:          -0.0037405756

    63 P_Mix/Diag. 0.40E+00    0.0     1.58389479        -3.7484439906  8.88E-15

  Trace(PS):                                    4.0000000000
  Electronic density on regular grids:         -3.9999053780        0.0000946220
  Core density on regular grids:                3.9961648024       -0.0038351976
  Total charge density on r-space grids:       -0.0037405756
  Total charge density g-space grids:          -0.0037405756

    64 P_Mix/Diag. 0.40E+00    0.0     1.58389479        -3.7484439906  1.33E-14

  Trace(PS):                                    4.0000000000
  Electronic density on regular grids:         -3.9999053780        0.0000946220
  Core density on regular grids:                3.9961648024       -0.0038351976
  Total charge density on r-space grids:       -0.0037405756
  Total charge density g-space grids:          -0.0037405756

    65 P_Mix/Diag. 0.40E+00    0.0     1.58389479        -3.7484439906 -1.15E-14

  Trace(PS):                                    4.0000000000
  Electronic density on regular grids:         -3.9999053780        0.0000946220
  Core density on regular grids:                3.9961648024       -0.0038351976
  Total charge density on r-space grids:       -0.0037405756
  Total charge density g-space grids:          -0.0037405756

    66 P_Mix/Diag. 0.40E+00    0.0     1.58389479        -3.7484439906  3.55E-15

  Trace(PS):                                    4.0000000000
  Electronic density on regular grids:         -3.9999053780        0.0000946220
  Core density on regular grids:                3.9961648024       -0.0038351976
  Total charge density on r-space grids:       -0.0037405756
  Total charge density g-space grids:          -0.0037405756

    67 P_Mix/Diag. 0.40E+00    0.0     1.58389479        -3.7484439906  3.11E-15

  Trace(PS):                                    4.0000000000
  Electronic density on regular grids:         -3.9999053780        0.0000946220
  Core density on regular grids:                3.9961648024       -0.0038351976
  Total charge density on r-space grids:       -0.0037405756
  Total charge density g-space grids:          -0.0037405756

    68 P_Mix/Diag. 0.40E+00    0.0     1.58389479        -3.7484439906 -3.55E-15

  Trace(PS):                                    4.0000000000
  Electronic density on regular grids:         -3.9999053780        0.0000946220
  Core density on regular grids:                3.9961648024       -0.0038351976
  Total charge density on r-space grids:       -0.0037405756
  Total charge density g-space grids:          -0.0037405756

    69 P_Mix/Diag. 0.40E+00    0.0     1.58389479        -3.7484439906 -4.44E-16

  Trace(PS):                                    4.0000000000
  Electronic density on regular grids:         -3.9999053780        0.0000946220
  Core density on regular grids:                3.9961648024       -0.0038351976
  Total charge density on r-space grids:       -0.0037405756
  Total charge density g-space grids:          -0.0037405756

    70 P_Mix/Diag. 0.40E+00    0.0     1.58389479        -3.7484439906  2.66E-15

  Trace(PS):                                    4.0000000000
  Electronic density on regular grids:         -3.9999053780        0.0000946220
  Core density on regular grids:                3.9961648024       -0.0038351976
  Total charge density on r-space grids:       -0.0037405756
  Total charge density g-space grids:          -0.0037405756

    71 P_Mix/Diag. 0.40E+00    0.0     1.58389479        -3.7484439906 -1.78E-15

  Trace(PS):                                    4.0000000000
  Electronic density on regular grids:         -3.9999053780        0.0000946220
  Core density on regular grids:                3.9961648024       -0.0038351976
  Total charge density on r-space grids:       -0.0037405756
  Total charge density g-space grids:          -0.0037405756

    72 P_Mix/Diag. 0.40E+00    0.0     1.58389479        -3.7484439906  8.88E-16

  Trace(PS):                                    4.0000000000
  Electronic density on regular grids:         -3.9999053780        0.0000946220
  Core density on regular grids:                3.9961648024       -0.0038351976
  Total charge density on r-space grids:       -0.0037405756
  Total charge density g-space grids:          -0.0037405756

    73 P_Mix/Diag. 0.40E+00    0.0     1.58389479        -3.7484439906 -8.88E-16

  Trace(PS):                                    4.0000000000
  Electronic density on regular grids:         -3.9999053780        0.0000946220
  Core density on regular grids:                3.9961648024       -0.0038351976
  Total charge density on r-space grids:       -0.0037405756
  Total charge density g-space grids:          -0.0037405756

    74 P_Mix/Diag. 0.40E+00    0.0     1.58389479        -3.7484439906  0.00E+00

  Trace(PS):                                    4.0000000000
  Electronic density on regular grids:         -3.9999053780        0.0000946220
  Core density on regular grids:                3.9961648024       -0.0038351976
  Total charge density on r-space grids:       -0.0037405756
  Total charge density g-space grids:          -0.0037405756

    75 P_Mix/Diag. 0.40E+00    0.0     1.58389479        -3.7484439906  0.00E+00

  Trace(PS):                                    4.0000000000
  Electronic density on regular grids:         -3.9999053780        0.0000946220
  Core density on regular grids:                3.9961648024       -0.0038351976
  Total charge density on r-space grids:       -0.0037405756
  Total charge density g-space grids:          -0.0037405756

    76 P_Mix/Diag. 0.40E+00    0.0     1.58389479        -3.7484439906  4.44E-16

  Trace(PS):                                    4.0000000000
  Electronic density on regular grids:         -3.9999053780        0.0000946220
  Core density on regular grids:                3.9961648024       -0.0038351976
  Total charge density on r-space grids:       -0.0037405756
  Total charge density g-space grids:          -0.0037405756

    77 P_Mix/Diag. 0.40E+00    0.0     1.58389479        -3.7484439906 -4.44E-16

  Trace(PS):                                    4.0000000000
  Electronic density on regular grids:         -3.9999053780        0.0000946220
  Core density on regular grids:                3.9961648024       -0.0038351976
  Total charge density on r-space grids:       -0.0037405756
  Total charge density g-space grids:          -0.0037405756

    78 P_Mix/Diag. 0.40E+00    0.0     1.58389479        -3.7484439906  0.00E+00

  Trace(PS):                                    4.0000000000
  Electronic density on regular grids:         -3.9999053780        0.0000946220
  Core density on regular grids:                3.9961648024       -0.0038351976
  Total charge density on r-space grids:       -0.0037405756
  Total charge density g-space grids:          -0.0037405756

    79 P_Mix/Diag. 0.40E+00    0.0     1.58389479        -3.7484439906  8.88E-16

  Trace(PS):                                    4.0000000000
  Electronic density on regular grids:         -3.9999053780        0.0000946220
  Core density on regular grids:                3.9961648024       -0.0038351976
  Total charge density on r-space grids:       -0.0037405756
  Total charge density g-space grids:          -0.0037405756

    80 P_Mix/Diag. 0.40E+00    0.0     1.58389479        -3.7484439906 -4.44E-16

  Trace(PS):                                    4.0000000000
  Electronic density on regular grids:         -3.9999053780        0.0000946220
  Core density on regular grids:                3.9961648024       -0.0038351976
  Total charge density on r-space grids:       -0.0037405756
  Total charge density g-space grids:          -0.0037405756

    81 P_Mix/Diag. 0.40E+00    0.0     1.58389479        -3.7484439906  1.33E-15

  Trace(PS):                                    4.0000000000
  Electronic density on regular grids:         -3.9999053780        0.0000946220
  Core density on regular grids:                3.9961648024       -0.0038351976
  Total charge density on r-space grids:       -0.0037405756
  Total charge density g-space grids:          -0.0037405756

    82 P_Mix/Diag. 0.40E+00    0.0     1.58389479        -3.7484439906 -4.44E-16

  Trace(PS):                                    4.0000000000
  Electronic density on regular grids:         -3.9999053780        0.0000946220
  Core density on regular grids:                3.9961648024       -0.0038351976
  Total charge density on r-space grids:       -0.0037405756
  Total charge density g-space grids:          -0.0037405756

    83 P_Mix/Diag. 0.40E+00    0.0     1.58389479        -3.7484439906 -4.44E-16

  Trace(PS):                                    4.0000000000
  Electronic density on regular grids:         -3.9999053780        0.0000946220
  Core density on regular grids:                3.9961648024       -0.0038351976
  Total charge density on r-space grids:       -0.0037405756
  Total charge density g-space grids:          -0.0037405756

    84 P_Mix/Diag. 0.40E+00    0.0     1.58389479        -3.7484439906 -8.88E-16

  Trace(PS):                                    4.0000000000
  Electronic density on regular grids:         -3.9999053780        0.0000946220
  Core density on regular grids:                3.9961648024       -0.0038351976
  Total charge density on r-space grids:       -0.0037405756
  Total charge density g-space grids:          -0.0037405756

    85 P_Mix/Diag. 0.40E+00    0.0     1.58389479        -3.7484439906  0.00E+00

  Trace(PS):                                    4.0000000000
  Electronic density on regular grids:         -3.9999053780        0.0000946220
  Core density on regular grids:                3.9961648024       -0.0038351976
  Total charge density on r-space grids:       -0.0037405756
  Total charge density g-space grids:          -0.0037405756

    86 P_Mix/Diag. 0.40E+00    0.0     1.58389479        -3.7484439906  0.00E+00

  Trace(PS):                                    4.0000000000
  Electronic density on regular grids:         -3.9999053780        0.0000946220
  Core density on regular grids:                3.9961648024       -0.0038351976
  Total charge density on r-space grids:       -0.0037405756
  Total charge density g-space grids:          -0.0037405756

    87 P_Mix/Diag. 0.40E+00    0.0     1.58389479        -3.7484439906  1.33E-15

  Trace(PS):                                    4.0000000000
  Electronic density on regular grids:         -3.9999053780        0.0000946220
  Core density on regular grids:                3.9961648024       -0.0038351976
  Total charge density on r-space grids:       -0.0037405756
  Total charge density g-space grids:          -0.0037405756

    88 P_Mix/Diag. 0.40E+00    0.0     1.58389479        -3.7484439906 -1.33E-15

  Trace(PS):                                    4.0000000000
  Electronic density on regular grids:         -3.9999053780        0.0000946220
  Core density on regular grids:                3.9961648024       -0.0038351976
  Total charge density on r-space grids:       -0.0037405756
  Total charge density g-space grids:          -0.0037405756

    89 P_Mix/Diag. 0.40E+00    0.0     1.58389479        -3.7484439906  4.44E-16

  Trace(PS):                                    4.0000000000
  Electronic density on regular grids:         -3.9999053780        0.0000946220
  Core density on regular grids:                3.9961648024       -0.0038351976
  Total charge density on r-space grids:       -0.0037405756
  Total charge density g-space grids:          -0.0037405756

    90 P_Mix/Diag. 0.40E+00    0.0     1.58389479        -3.7484439906  0.00E+00

  Trace(PS):                                    4.0000000000
  Electronic density on regular grids:         -3.9999053780        0.0000946220
  Core density on regular grids:                3.9961648024       -0.0038351976
  Total charge density on r-space grids:       -0.0037405756
  Total charge density g-space grids:          -0.0037405756

    91 P_Mix/Diag. 0.40E+00    0.0     1.58389479        -3.7484439906  4.44E-16

  Trace(PS):                                    4.0000000000
  Electronic density on regular grids:         -3.9999053780        0.0000946220
  Core density on regular grids:                3.9961648024       -0.0038351976
  Total charge density on r-space grids:       -0.0037405756
  Total charge density g-space grids:          -0.0037405756

    92 P_Mix/Diag. 0.40E+00    0.0     1.58389479        -3.7484439906 -4.44E-16

  Trace(PS):                                    4.0000000000
  Electronic density on regular grids:         -3.9999053780        0.0000946220
  Core density on regular grids:                3.9961648024       -0.0038351976
  Total charge density on r-space grids:       -0.0037405756
  Total charge density g-space grids:          -0.0037405756

    93 P_Mix/Diag. 0.40E+00    0.0     1.58389479        -3.7484439906  4.44E-16

  Trace(PS):                                    4.0000000000
  Electronic density on regular grids:         -3.9999053780        0.0000946220
  Core density on regular grids:                3.9961648024       -0.0038351976
  Total charge density on r-space grids:       -0.0037405756
  Total charge density g-space grids:          -0.0037405756

    94 P_Mix/Diag. 0.40E+00    0.0     1.58389479        -3.7484439906 -8.88E-16

  Trace(PS):                                    4.0000000000
  Electronic density on regular grids:         -3.9999053780        0.0000946220
  Core density on regular grids:                3.9961648024       -0.0038351976
  Total charge density on r-space grids:       -0.0037405756
  Total charge density g-space grids:          -0.0037405756

    95 P_Mix/Diag. 0.40E+00    0.0     1.58389479        -3.7484439906  8.88E-16

  Trace(PS):                                    4.0000000000
  Electronic density on regular grids:         -3.9999053780        0.0000946220
  Core density on regular grids:                3.9961648024       -0.0038351976
  Total charge density on r-space grids:       -0.0037405756
  Total charge density g-space grids:          -0.0037405756

    96 P_Mix/Diag. 0.40E+00    0.0     1.58389479        -3.7484439906  8.88E-16

  Trace(PS):                                    4.0000000000
  Electronic density on regular grids:         -3.9999053780        0.0000946220
  Core density on regular grids:                3.9961648024       -0.0038351976
  Total charge density on r-space grids:       -0.0037405756
  Total charge density g-space grids:          -0.0037405756

    97 P_Mix/Diag. 0.40E+00    0.0     1.58389479        -3.7484439906 -1.33E-15

  Trace(PS):                                    4.0000000000
  Electronic density on regular grids:         -3.9999053780        0.0000946220
  Core density on regular grids:                3.9961648024       -0.0038351976
  Total charge density on r-space grids:       -0.0037405756
  Total charge density g-space grids:          -0.0037405756

    98 P_Mix/Diag. 0.40E+00    0.0     1.58389479        -3.7484439906  0.00E+00

  Trace(PS):                                    4.0000000000
  Electronic density on regular grids:         -3.9999053780        0.0000946220
  Core density on regular grids:                3.9961648024       -0.0038351976
  Total charge density on r-space grids:       -0.0037405756
  Total charge density g-space grids:          -0.0037405756

    99 P_Mix/Diag. 0.40E+00    0.0     1.58389479        -3.7484439906 -4.44E-16

  Trace(PS):                                    4.0000000000
  Electronic density on regular grids:         -3.9999053780        0.0000946220
  Core density on regular grids:                3.9961648024       -0.0038351976
  Total charge density on r-space grids:       -0.0037405756
  Total charge density g-space grids:          -0.0037405756

   100 P_Mix/Diag. 0.40E+00    0.0     1.58389479        -3.7484439906  0.00E+00

  *** SCF run NOT converged ***


  Electronic density on regular grids:         -3.9999053780        0.0000946220
  Core density on regular grids:                3.9961648024       -0.0038351976
  Total charge density on r-space grids:       -0.0037405756
  Total charge density g-space grids:          -0.0037405756

  Overlap energy of the core charge distribution:               0.00000000000000
  Self energy of the core charge distribution:                -10.25799242814102
  Core Hamiltonian energy:                                      1.92888352289541
  Hartree energy:                                               5.54687691052460
  Exchange-correlation energy:                                 -0.96621199590420

  Total energy:                                                -3.74844399062522


 MULLIKEN POPULATION ANALYSIS

 #  Atom  Element  Kind  Atomic population                Net charge
       1     Si       1          4.000000                 -0.000000
 # Total charge                  4.000000                 -0.000000


 !-----------------------------------------------------------------------------!
                           Hirschfeld Charges

  #Atom  Element  Kind  Ref Charge     Population                     Net charge
      1       Si     1       4.000          3.422                          0.578

  Total Charge                                                             0.578
 !-----------------------------------------------------------------------------!

  Trace(PS):                                    4.0000000000
  Electronic density on regular grids:         -3.9999053780        0.0000946220
  Core density on regular grids:                3.9961648024       -0.0038351976
  Total charge density on r-space grids:       -0.0037405756
  Total charge density g-space grids:          -0.0037405756


 ENERGY| Total FORCE_EVAL ( QS ) energy (a.u.):               -3.725816522449558


 -------------------------------------------------------------------------------
 -                                                                             -
 -                                DBCSR STATISTICS                             -
 -                                                                             -
 -------------------------------------------------------------------------------
 COUNTER                                      CPU                  ACC      ACC%
 number of processed stacks                   101                    0       0.0
 matmuls inhomo. stacks                         0                    0       0.0
 matmuls total                                101                    0       0.0
 flops  13 x   13 x    2                    68276                    0       0.0
 flops total                                68276                    0       0.0
 marketing flops                            68276
 -------------------------------------------------------------------------------

 -------------------------------------------------------------------------------
 ----                             MULTIGRID INFO                            ----
 -------------------------------------------------------------------------------
 count for grid        1:            311          cutoff [a.u.]           25.00
 count for grid        2:            326          cutoff [a.u.]            8.33
 total gridlevel count  :            637

 -------------------------------------------------------------------------------
 -                                                                             -
 -                         MESSAGE PASSING PERFORMANCE                         -
 -                                                                             -
 -------------------------------------------------------------------------------

 ROUTINE             CALLS  TOT TIME [s]  AVE VOLUME [Bytes]  PERFORMANCE [MB/s]
 MP_Group                3         0.000
 MP_Bcast              102         0.000                  4.                1.51
 MP_Allreduce         1170         0.001                  8.               17.29
 MP_Sync                 2         0.000
 MP_Alltoall          2316         0.001                522.              906.51
 MP_Wait              2424         0.001
 MP_ISend              808         0.001                228.              134.68
 MP_IRecv              808         0.000                228.              428.40
 MP_Memory            2424         0.001
 -------------------------------------------------------------------------------


 -------------------------------------------------------------------------------
 -                                                                             -
 -                           R E F E R E N C E S                               -
 -                                                                             -
 -------------------------------------------------------------------------------
 
 CP2K version 2.6.2, the CP2K developers group (2015).
 CP2K is freely available from http://www.cp2k.org/ .

 Borstnik, U; VandeVondele, J; Weber, V; Hutter, J. 
 PARALLEL COMPUTING, 40 (5-6), 47-58 (2014). 
 Sparse matrix multiplication: The distributed block-compressed sparse
 row library.
 http://dx.doi.org/10.1016/j.parco.2014.03.012


 Hutter, J; Iannuzzi, M; Schiffmann, F; VandeVondele, J. 
 WILEY INTERDISCIPLINARY REVIEWS-COMPUTATIONAL MOLECULAR SCIENCE, 4 (1), 15-25 (2014). 
 CP2K: atomistic simulations of condensed matter systems.
 http://dx.doi.org/10.1002/wcms.1159


 Krack, M. 
 THEORETICAL CHEMISTRY ACCOUNTS, 114 (1-3), 145-152 (2005). 
 Pseudopotentials for H to Kr optimized for gradient-corrected
 exchange-correlation functionals.
 http://dx.doi.org/10.1007/s00214-005-0655-y


 VandeVondele, J; Krack, M; Mohamed, F; Parrinello, M; Chassaing, T;
 Hutter, J. COMPUTER PHYSICS COMMUNICATIONS, 167 (2), 103-128 (2005). 
 QUICKSTEP: Fast and accurate density functional calculations using a
 mixed Gaussian and plane waves approach.
 http://dx.doi.org/10.1016/j.cpc.2004.12.014


 Frigo, M; Johnson, SG. 
 PROCEEDINGS OF THE IEEE, 93 (2), 216-231 (2005). 
 The design and implementation of FFTW3.
 http://dx.doi.org/10.1109/JPROC.2004.840301


 Hartwigsen, C; Goedecker, S; Hutter, J. 
 PHYSICAL REVIEW B, 58 (7), 3641-3662 (1998). 
 Relativistic separable dual-space Gaussian pseudopotentials from H to Rn.
 http://dx.doi.org/10.1103/PhysRevB.58.3641


 Lippert, G; Hutter, J; Parrinello, M. 
 MOLECULAR PHYSICS, 92 (3), 477-487 (1997). 
 A hybrid Gaussian and plane wave density functional scheme.
 http://dx.doi.org/10.1080/002689797170220


 Goedecker, S; Teter, M; Hutter, J. 
 PHYSICAL REVIEW B, 54 (3), 1703-1710 (1996). 
 Separable dual-space Gaussian pseudopotentials.
 http://dx.doi.org/10.1103/PhysRevB.54.1703


 -------------------------------------------------------------------------------
 -                                                                             -
 -                                T I M I N G                                  -
 -                                                                             -
 -------------------------------------------------------------------------------
 SUBROUTINE                       CALLS  ASD         SELF TIME        TOTAL TIME
                                MAXIMUM       AVERAGE  MAXIMUM  AVERAGE  MAXIMUM
 CP2K                                 1  1.0    0.002    0.002    0.542    0.542
 qs_forces                            1  2.0    0.000    0.000    0.517    0.517
 qs_energies_scf                      1  3.0    0.000    0.000    0.514    0.514
 scf_env_do_scf                       1  4.0    0.000    0.000    0.499    0.499
 scf_env_do_scf_inner_loop          100  5.0    0.007    0.007    0.499    0.499
 rebuild_ks_matrix                  101  7.0    0.000    0.000    0.258    0.258
 qs_ks_build_kohn_sham_matrix       101  8.0    0.008    0.008    0.258    0.258
 qs_ks_update_qs_env                100  6.0    0.000    0.000    0.257    0.257
 fft_wrap_pw1pw2                    607 10.0    0.002    0.002    0.164    0.164
 fft_wrap_pw1pw2_30                 405 10.7    0.009    0.009    0.151    0.151
 qs_rho_update_rho                  101  6.0    0.000    0.000    0.132    0.132
 calculate_rho_elec                 101  7.0    0.042    0.042    0.132    0.132
 fft3d_s                            608 12.0    0.101    0.101    0.111    0.111
 sum_up_and_integrate               101  9.0    0.002    0.002    0.105    0.105
 integrate_v_rspace                 101 10.0    0.050    0.050    0.103    0.103
 density_rs2pw                      101  8.0    0.001    0.001    0.088    0.088
 qs_vxc_create                      101  9.0    0.001    0.001    0.080    0.080
 xc_vxc_pw_create                   101 10.0    0.009    0.009    0.079    0.079
 xc_rho_set_and_dset_create         101 11.0    0.001    0.001    0.070    0.070
 xc_functional_eval                 101 12.0    0.067    0.067    0.067    0.067
 calculate_dm_sparse                100  6.0    0.000    0.000    0.054    0.054
 cp_dbcsr_plus_fm_fm_t_native       101  7.0    0.001    0.001    0.054    0.054
 potential_pw2rs                    101 11.0    0.001    0.001    0.048    0.048
 dbcsr_mm_cannon_multiply           101  8.0    0.004    0.004    0.040    0.040
 quickstep_create_force_env           1  2.0    0.000    0.000    0.023    0.023
 dbcsr_complete_redistribute        302  9.0    0.010    0.010    0.022    0.022
 copy_dbcsr_to_fm                   400  7.0    0.003    0.003    0.021    0.021
 pw_poisson_solve                   101  9.0    0.016    0.016    0.021    0.021
 pw_gather_s                        304 12.0    0.021    0.021    0.021    0.021
 pw_scatter_s                       303 12.0    0.021    0.021    0.021    0.021
 qs_diis_b_step                      99  6.0    0.001    0.001    0.017    0.017
 eigensolver                        100  6.0    0.000    0.000    0.016    0.016
 create_qs_kind_set                   1  3.0    0.000    0.000    0.014    0.014
 read_qs_kind                         1  4.0    0.008    0.008    0.014    0.014
 pw_copy                            606 10.8    0.013    0.013    0.013    0.013
 cp_fm_syevd                        100  7.0    0.000    0.000    0.012    0.012
 dbcsr_finalize                     726 10.0    0.002    0.002    0.012    0.012
 cp_fm_syevd_base                   100  8.0    0.012    0.012    0.012    0.012
 dbcsr_make_images                  202  9.0    0.000    0.000    0.012    0.012
 make_images                        202 10.0    0.002    0.002    0.012    0.012
 fft_wrap_pw1pw2_10                 202 11.5    0.001    0.001    0.011    0.011
 -------------------------------------------------------------------------------

  **** **** ******  **  PROGRAM ENDED AT                 2016-04-25 14:37:02.131
 ***** ** ***  *** **   PROGRAM RAN ON                       lauri-Lenovo-Z50-70
 **    ****   ******    PROGRAM RAN BY                                     lauri
 ***** **    ** ** **   PROGRAM PROCESS ID                                 17262
  **** **  *******  **  PROGRAM STOPPED IN /home/lauri/Dropbox/nomad-dev/nomad-l
                                           ab-base/parsers/cp2k/test/unittests/c
                                           p2k_2.6.2/configuration_periodic_dime
                                           nsions/none
