# Projected DOS for atomic kind H at iteration step i = 0, E(Fermi) =     0.032245 a.u.
#     MO Eigenvalue [a.u.]      Occupation                 s                 p
       1         -0.281587        1.000000        0.92982909        0.07017091
       2          0.060055        0.000000        0.35175960        0.64824040
       3          0.257068        0.000000        0.00000000        1.00000000
       4          0.257068        0.000000        0.00000000        1.00000000
       5          0.724722        0.000000        0.65594992        0.34405008
       6          0.821978        0.000000        0.07562262        0.92437738
       7          0.966780        0.000000        0.00000000        1.00000000
       8          0.966780        0.000000        0.00000000        1.00000000
       9          2.763651        0.000000        0.99454829        0.00545171
      10          4.930257        0.000000        0.99229048        0.00770952
