 DBCSR| Multiplication driver                                                SMM
 DBCSR| Multrec recursion limit                                              512
 DBCSR| Multiplication stack size                                           1000
 DBCSR| Multiplication size stacks                                             3
 DBCSR| Use subcommunicators                                                   T
 DBCSR| Use MPI combined types                                                 F
 DBCSR| Use MPI memory allocation                                              T
 DBCSR| Use Communication thread                                               T
 DBCSR| Communication thread load                                             87


  **** **** ******  **  PROGRAM STARTED AT               2016-04-25 11:54:48.397
 ***** ** ***  *** **   PROGRAM STARTED ON                   lauri-Lenovo-Z50-70
 **    ****   ******    PROGRAM STARTED BY                                 lauri
 ***** **    ** ** **   PROGRAM PROCESS ID                                 14465
  **** **  *******  **  PROGRAM STARTED IN /home/lauri/Dropbox/nomad-dev/nomad-l
                                           ab-base/parsers/cp2k/test/unittests/c
                                           p2k_2.6.2/XC_functional/pbe

 CP2K| version string:                                        CP2K version 2.6.2
 CP2K| source code revision number:                                    svn:15893
 CP2K| is freely available from                             http://www.cp2k.org/
 CP2K| Program compiled at                           ke 4.11.2015 08.48.42 +0200
 CP2K| Program compiled on                                   lauri-Lenovo-Z50-70
 CP2K| Program compiled for                          Linux-x86-64-gfortran_basic
 CP2K| Input file name                                                   pbe.inp

 GLOBAL| Force Environment number                                              1
 GLOBAL| Basis set file name                                     ../../BASIS_SET
 GLOBAL| Geminal file name                                         BASIS_GEMINAL
 GLOBAL| Potential file name                                ../../GTH_POTENTIALS
 GLOBAL| MM Potential file name                                     MM_POTENTIAL
 GLOBAL| Coordinate file name                                      __STD_INPUT__
 GLOBAL| Method name                                                        CP2K
 GLOBAL| Project name                                                    si_bulk
 GLOBAL| Preferred FFT library                                             FFTW3
 GLOBAL| Preferred diagonalization lib.                                       SL
 GLOBAL| Run type                                                   ENERGY_FORCE
 GLOBAL| All-to-all communication in single precision                          F
 GLOBAL| FFTs using library dependent lengths                                  F
 GLOBAL| Global print level                                               MEDIUM
 GLOBAL| Total number of message passing processes                             1
 GLOBAL| Number of threads for this process                                    1
 GLOBAL| This output is from process                                           0

 MEMORY| system memory details [Kb]
 MEMORY|                        rank 0           min           max       average
 MEMORY| MemTotal              8070380       8070380       8070380       8070380
 MEMORY| MemFree               2295224       2295224       2295224       2295224
 MEMORY| Buffers                884576        884576        884576        884576
 MEMORY| Cached                2192088       2192088       2192088       2192088
 MEMORY| Slab                   501988        501988        501988        501988
 MEMORY| SReclaimable           458920        458920        458920        458920
 MEMORY| MemLikelyFree         5830808       5830808       5830808       5830808


 *** Fundamental physical constants (SI units) ***

 *** Literature: B. J. Mohr and B. N. Taylor,
 ***             CODATA recommended values of the fundamental physical
 ***             constants: 2006, Web Version 5.1
 ***             http://physics.nist.gov/constants

 Speed of light in vacuum [m/s]                             2.99792458000000E+08
 Magnetic constant or permeability of vacuum [N/A**2]       1.25663706143592E-06
 Electric constant or permittivity of vacuum [F/m]          8.85418781762039E-12
 Planck constant (h) [J*s]                                  6.62606896000000E-34
 Planck constant (h-bar) [J*s]                              1.05457162825177E-34
 Elementary charge [C]                                      1.60217648700000E-19
 Electron mass [kg]                                         9.10938215000000E-31
 Electron g factor [ ]                                     -2.00231930436220E+00
 Proton mass [kg]                                           1.67262163700000E-27
 Fine-structure constant                                    7.29735253760000E-03
 Rydberg constant [1/m]                                     1.09737315685270E+07
 Avogadro constant [1/mol]                                  6.02214179000000E+23
 Boltzmann constant [J/K]                                   1.38065040000000E-23
 Atomic mass unit [kg]                                      1.66053878200000E-27
 Bohr radius [m]                                            5.29177208590000E-11

 *** Conversion factors ***

 [u] -> [a.u.]                                              1.82288848426455E+03
 [Angstrom] -> [Bohr] = [a.u.]                              1.88972613288564E+00
 [a.u.] = [Bohr] -> [Angstrom]                              5.29177208590000E-01
 [a.u.] -> [s]                                              2.41888432650478E-17
 [a.u.] -> [fs]                                             2.41888432650478E-02
 [a.u.] -> [J]                                              4.35974393937059E-18
 [a.u.] -> [N]                                              8.23872205491840E-08
 [a.u.] -> [K]                                              3.15774647902944E+05
 [a.u.] -> [kJ/mol]                                         2.62549961709828E+03
 [a.u.] -> [kcal/mol]                                       6.27509468713739E+02
 [a.u.] -> [Pa]                                             2.94210107994716E+13
 [a.u.] -> [bar]                                            2.94210107994716E+08
 [a.u.] -> [atm]                                            2.90362800883016E+08
 [a.u.] -> [eV]                                             2.72113838565563E+01
 [a.u.] -> [Hz]                                             6.57968392072181E+15
 [a.u.] -> [1/cm] (wave numbers)                            2.19474631370540E+05
 [a.u./Bohr**2] -> [1/cm]                                   5.14048714338585E+03
 

 CELL_TOP| Volume [angstrom^3]:                                          160.165
 CELL_TOP| Vector a [angstrom     5.431     0.000     0.000    |a| =       5.431
 CELL_TOP| Vector b [angstrom     0.000     5.431     0.000    |b| =       5.431
 CELL_TOP| Vector c [angstrom     0.000     0.000     5.431    |c| =       5.431
 CELL_TOP| Angle (b,c), alpha [degree]:                                   90.000
 CELL_TOP| Angle (a,c), beta  [degree]:                                   90.000
 CELL_TOP| Angle (a,b), gamma [degree]:                                   90.000
 CELL_TOP| Numerically orthorhombic:                                         YES

 GENERATE|  Preliminary Number of Bonds generated:                             0
 GENERATE|  Achieved consistency in connectivity generation.

 CELL| Volume [angstrom^3]:                                              160.165
 CELL| Vector a [angstrom]:       5.431     0.000     0.000    |a| =       5.431
 CELL| Vector b [angstrom]:       0.000     5.431     0.000    |b| =       5.431
 CELL| Vector c [angstrom]:       0.000     0.000     5.431    |c| =       5.431
 CELL| Angle (b,c), alpha [degree]:                                       90.000
 CELL| Angle (a,c), beta  [degree]:                                       90.000
 CELL| Angle (a,b), gamma [degree]:                                       90.000
 CELL| Numerically orthorhombic:                                             YES

 CELL_REF| Volume [angstrom^3]:                                          160.165
 CELL_REF| Vector a [angstrom     5.431     0.000     0.000    |a| =       5.431
 CELL_REF| Vector b [angstrom     0.000     5.431     0.000    |b| =       5.431
 CELL_REF| Vector c [angstrom     0.000     0.000     5.431    |c| =       5.431
 CELL_REF| Angle (b,c), alpha [degree]:                                   90.000
 CELL_REF| Angle (a,c), beta  [degree]:                                   90.000
 CELL_REF| Angle (a,b), gamma [degree]:                                   90.000
 CELL_REF| Numerically orthorhombic:                                         YES

 *******************************************************************************
 *******************************************************************************
 **                                                                           **
 **     #####                         ##              ##                      **
 **    ##   ##            ##          ##              ##                      **
 **   ##     ##                       ##            ######                    **
 **   ##     ##  ##   ##  ##   #####  ##  ##   ####   ##    #####    #####    **
 **   ##     ##  ##   ##  ##  ##      ## ##   ##      ##   ##   ##  ##   ##   **
 **   ##  ## ##  ##   ##  ##  ##      ####     ###    ##   ######   ######    **
 **    ##  ###   ##   ##  ##  ##      ## ##      ##   ##   ##       ##        **
 **     #######   #####   ##   #####  ##  ##  ####    ##    #####   ##        **
 **           ##                                                    ##        **
 **                                                                           **
 **                                                ... make the atoms dance   **
 **                                                                           **
 **            Copyright (C) by CP2K Developers Group (2000 - 2014)           **
 **                                                                           **
 *******************************************************************************

 DFT| Spin restricted Kohn-Sham (RKS) calculation                            RKS
 DFT| Multiplicity                                                             1
 DFT| Number of spin states                                                    1
 DFT| Charge                                                                   0
 DFT| Self-interaction correction (SIC)                                       NO
 DFT| Cutoffs: density                                              1.000000E-10
 DFT|          gradient                                             1.000000E-10
 DFT|          tau                                                  1.000000E-10
 DFT|          cutoff_smoothing_range                               0.000000E+00
 DFT| XC density smoothing                                                  NONE
 DFT| XC derivatives                                                          PW
 FUNCTIONAL| ROUTINE=NEW
 FUNCTIONAL| PBE:
 FUNCTIONAL| J.P.Perdew, K.Burke, M.Ernzerhof, Phys. Rev. Letter, vol. 77, n 18,
 FUNCTIONAL|  pp. 3865-3868, (1996){spin unpolarized}

 QS| Method:                                                                 GPW
 QS| Density plane wave grid type                        NON-SPHERICAL FULLSPACE
 QS| Number of grid levels:                                                    2
 QS| Density cutoff [a.u.]:                                                 25.0
 QS| Multi grid cutoff [a.u.]: 1) grid level                                25.0
 QS|                           2) grid level                                 8.3
 QS| Grid level progression factor:                                          3.0
 QS| Relative density cutoff [a.u.]:                                        12.5
 QS| Consistent realspace mapping and integration 
 QS| Interaction thresholds: eps_pgf_orb:                                3.2E-02
 QS|                         eps_filter_matrix:                          0.0E+00
 QS|                         eps_core_charge:                            1.0E-05
 QS|                         eps_rho_gspace:                             1.0E-03
 QS|                         eps_rho_rspace:                             1.0E-03
 QS|                         eps_gvg_rspace:                             3.2E-02
 QS|                         eps_ppl:                                    1.0E-02
 QS|                         eps_ppnl:                                   3.2E-04


 ATOMIC KIND INFORMATION

  1. Atomic kind: Si                                    Number of atoms:       1

     Orbital Basis Set                                             DZVP-GTH-PADE

       Number of orbital shell sets:                                           2
       Number of orbital shells:                                               5
       Number of primitive Cartesian functions:                                5
       Number of Cartesian basis functions:                                   14
       Number of spherical basis functions:                                   13
       Norm type:                                                              2

       Normalised Cartesian orbitals:

                        Set   Shell   Orbital            Exponent    Coefficient

                          1       1    3s                1.203242       0.269412
                                                         0.468841      -0.102290
                                                         0.167986      -0.147195
                                                         0.057562      -0.015996

                          1       2    4s                1.203242       0.000000
                                                         0.468841       0.000000
                                                         0.167986       0.000000
                                                         0.057562       0.083755

                          1       3    4px               1.203242       0.085242
                                                         0.468841      -0.143473
                                                         0.167986      -0.083408
                                                         0.057562      -0.014565
                          1       3    4py               1.203242       0.085242
                                                         0.468841      -0.143473
                                                         0.167986      -0.083408
                                                         0.057562      -0.014565
                          1       3    4pz               1.203242       0.085242
                                                         0.468841      -0.143473
                                                         0.167986      -0.083408
                                                         0.057562      -0.014565

                          1       4    5px               1.203242       0.000000
                                                         0.468841       0.000000
                                                         0.167986       0.000000
                                                         0.057562       0.040189
                          1       4    5py               1.203242       0.000000
                                                         0.468841       0.000000
                                                         0.167986       0.000000
                                                         0.057562       0.040189
                          1       4    5pz               1.203242       0.000000
                                                         0.468841       0.000000
                                                         0.167986       0.000000
                                                         0.057562       0.040189

                          2       1    3dx2              0.450000       0.406941
                          2       1    3dxy              0.450000       0.704842
                          2       1    3dxz              0.450000       0.704842
                          2       1    3dy2              0.450000       0.406941
                          2       1    3dyz              0.450000       0.704842
                          2       1    3dz2              0.450000       0.406941

     Potential information for                                       GTH-PADE-q4

       Description:                       Goedecker-Teter-Hutter pseudopotential
                                           Goedecker et al., PRB 54, 1703 (1996)
                                          Hartwigsen et al., PRB 58, 3641 (1998)
                                                      Krack, TCA 114, 145 (2005)

       Gaussian exponent of the core charge distribution:               2.582645
       Electronic configuration (s p d ...):                               2   2

       Parameters of the local part of the GTH pseudopotential:

                          rloc        C1          C2          C3          C4
                        0.440000   -7.336103

       Parameters of the non-local part of the GTH pseudopotential:

                   l      r(l)      h(i,j,l)

                   0    0.422738    5.906928   -1.261894
                                   -1.261894    3.258196
                   1    0.484278    2.727013


 MOLECULE KIND INFORMATION


 All atoms are their own molecule, skipping detailed information


 TOTAL NUMBERS AND MAXIMUM NUMBERS

  Total number of            - Atomic kinds:                                   1
                             - Atoms:                                          1
                             - Shell sets:                                     2
                             - Shells:                                         5
                             - Primitive Cartesian functions:                  5
                             - Cartesian basis functions:                     14
                             - Spherical basis functions:                     13

  Maximum angular momentum of- Orbital basis functions:                        2
                             - Local part of the GTH pseudopotential:          0
                             - Non-local part of the GTH pseudopotential:      2


 MODULE QUICKSTEP:  ATOMIC COORDINATES IN angstrom

  Atom  Kind  Element       X           Y           Z          Z(eff)       Mass

       1     1 Si  14    0.000000    0.000000    0.000000      4.00      28.0855




 SCF PARAMETERS         Density guess:                                    ATOMIC
                        --------------------------------------------------------
                        max_scf:                                             100
                        max_scf_history:                                       0
                        max_diis:                                              4
                        --------------------------------------------------------
                        eps_scf:                                        1.00E-03
                        eps_scf_history:                                0.00E+00
                        eps_diis:                                       1.00E-01
                        eps_eigval:                                     1.00E-05
                        --------------------------------------------------------
                        level_shift [a.u.]:                                 0.00
                        --------------------------------------------------------
                        Mixing method:                           DIRECT_P_MIXING
                        --------------------------------------------------------
                        No outer SCF

 PW_GRID| Information for grid number                                          1
 PW_GRID| Cutoff [a.u.]                                                     25.0
 PW_GRID| spherical cutoff:                                                   NO
 PW_GRID|   Bounds   1            -12      11                Points:          24
 PW_GRID|   Bounds   2            -12      11                Points:          24
 PW_GRID|   Bounds   3            -12      11                Points:          24
 PW_GRID| Volume element (a.u.^3)  0.7819E-01     Volume (a.u.^3)      1080.8451
 PW_GRID| Grid span                                                    FULLSPACE

 PW_GRID| Information for grid number                                          2
 PW_GRID| Cutoff [a.u.]                                                      8.3
 PW_GRID| spherical cutoff:                                                   NO
 PW_GRID|   Bounds   1             -7       7                Points:          15
 PW_GRID|   Bounds   2             -7       7                Points:          15
 PW_GRID|   Bounds   3             -7       7                Points:          15
 PW_GRID| Volume element (a.u.^3)  0.3203         Volume (a.u.^3)      1080.8451
 PW_GRID| Grid span                                                    FULLSPACE

 POISSON| Solver                                                        PERIODIC
 POISSON| Periodicity                                                        XYZ

 RS_GRID| Information for grid number                                          1
 RS_GRID|   Bounds   1            -12      11                Points:          24
 RS_GRID|   Bounds   2            -12      11                Points:          24
 RS_GRID|   Bounds   3            -12      11                Points:          24

 RS_GRID| Information for grid number                                          2
 RS_GRID|   Bounds   1             -7       7                Points:          15
 RS_GRID|   Bounds   2             -7       7                Points:          15
 RS_GRID|   Bounds   3             -7       7                Points:          15

 DISTRIBUTION OF THE PARTICLES (ROWS)
              Process row      Number of particles         Number of matrix rows
                        0                        1                            -1
                      Sum                        1                            -1

 DISTRIBUTION OF THE PARTICLES (COLUMNS)
              Process col      Number of particles      Number of matrix columns
                        0                        1                            -1
                      Sum                        1                            -1

 DISTRIBUTION OF THE NEIGHBOR LISTS
              Total number of particle pairs:                                  7
              Total number of matrix elements:                              1183
              Average number of particle pairs:                                7
              Maximum number of particle pairs:                                7
              Average number of matrix element:                             1183
              Maximum number of matrix elements:                            1183


 DISTRIBUTION OF THE OVERLAP MATRIX
              Number  of non-zero blocks:                                      1
              Percentage non-zero blocks:                                 100.00
              Average number of blocks per CPU:                                1
              Maximum number of blocks per CPU:                                1
              Average number of matrix elements per CPU:                     179
              Maximum number of matrix elements per CPU:                     179

 Number of electrons:                                                          4
 Number of occupied orbitals:                                                  2
 Number of molecular orbitals:                                                 2

 Number of orbital functions:                                                 13
 Number of independent orbital functions:                                     13

 Extrapolation method: initial_guess

 Atomic guess: The first density matrix is obtained in terms of atomic orbitals
               and electronic configurations assigned to each atomic kind

 Guess for atomic kind: Si

 Electronic structure
    Total number of core electrons                                         10.00
    Total number of valence electrons                                       4.00
    Total number of electrons                                              14.00
    Multiplicity                                                   not specified
    S   [  2.00  2.00] 2.00
    P   [  6.00] 2.00


 *******************************************************************************
                  Iteration          Convergence                     Energy [au]
 *******************************************************************************
                          1        0.191310                      -3.618313869735
                          2        0.731569E-01                  -3.691159009622
                          3        0.405574E-02                  -3.699900512584
                          4        0.328704E-02                  -3.699908407293
                          5        0.320845E-02                  -3.699909118998
                          6        0.316809E-02                  -3.699909477757
                          7        0.331859E-05                  -3.699923449535
                          8        0.110258E-06                  -3.699923449550

 Energy components [Hartree]           Total Energy ::           -3.699923449550
                                        Band Energy ::           -1.012729790251
                                     Kinetic Energy ::            1.397012768229
                                   Potential Energy ::           -5.096936217779
                                      Virial (-V/T) ::            3.648453567279
                                        Core Energy ::           -5.703543362687
                                          XC Energy ::           -0.980691562795
                                     Coulomb Energy ::            2.984311475932
                       Total Pseudopotential Energy ::           -7.145739758818
                       Local Pseudopotential Energy ::           -7.987908627736
                    Nonlocal Pseudopotential Energy ::            0.842168868918
                                        Confinement ::            0.451836279031

 Orbital energies  State     L     Occupation   Energy[a.u.]          Energy[eV]

                       1     0          2.000      -0.378230          -10.292155

                       1     1          2.000      -0.128135           -3.486734

 Re-scaling the density matrix to get the right number of electrons
                  # Electrons              Trace(P)               Scaling factor
                            4                 3.957                        1.011


 SCF WAVEFUNCTION OPTIMIZATION

  Step     Update method      Time    Convergence         Total energy    Change
  ------------------------------------------------------------------------------

  Trace(PS):                                    4.0000000000
  Electronic density on regular grids:         -3.9998453719        0.0001546281
  Core density on regular grids:                3.9961648024       -0.0038351976
  Total charge density on r-space grids:       -0.0036805695
  Total charge density g-space grids:          -0.0036805695

     1 P_Mix/Diag. 0.40E+00    0.0     0.75232714        -3.7849910916 -3.78E+00

  Trace(PS):                                    4.0000000000
  Electronic density on regular grids:         -3.9998371990        0.0001628010
  Core density on regular grids:                3.9961648024       -0.0038351976
  Total charge density on r-space grids:       -0.0036723967
  Total charge density g-space grids:          -0.0036723967

     2 P_Mix/Diag. 0.40E+00    0.0     1.19158290        -3.7798753978  5.12E-03

  Trace(PS):                                    4.0000000000
  Electronic density on regular grids:         -3.9998300537        0.0001699463
  Core density on regular grids:                3.9961648024       -0.0038351976
  Total charge density on r-space grids:       -0.0036652513
  Total charge density g-space grids:          -0.0036652513

     3 P_Mix/Diag. 0.40E+00    0.0     1.06839956        -3.7786682510  1.21E-03

  Trace(PS):                                    4.0000000000
  Electronic density on regular grids:         -3.9998112048        0.0001887952
  Core density on regular grids:                3.9961648024       -0.0038351976
  Total charge density on r-space grids:       -0.0036464024
  Total charge density g-space grids:          -0.0036464024

     4 P_Mix/Diag. 0.40E+00    0.0     0.92975766        -3.7786142549  5.40E-05

  Trace(PS):                                    4.0000000000
  Electronic density on regular grids:         -3.9998210705        0.0001789295
  Core density on regular grids:                3.9961648024       -0.0038351976
  Total charge density on r-space grids:       -0.0036562681
  Total charge density g-space grids:          -0.0036562681

     5 P_Mix/Diag. 0.40E+00    0.0     1.40254643        -3.7773252384  1.29E-03

  Trace(PS):                                    4.0000000000
  Electronic density on regular grids:         -3.9998193681        0.0001806319
  Core density on regular grids:                3.9961648024       -0.0038351976
  Total charge density on r-space grids:       -0.0036545657
  Total charge density g-space grids:          -0.0036545657

     6 P_Mix/Diag. 0.40E+00    0.0     1.26253130        -3.7769484030  3.77E-04

  Trace(PS):                                    4.0000000000
  Electronic density on regular grids:         -3.9998084060        0.0001915940
  Core density on regular grids:                3.9961648024       -0.0038351976
  Total charge density on r-space grids:       -0.0036436036
  Total charge density g-space grids:          -0.0036436036

     7 P_Mix/Diag. 0.40E+00    0.0     1.31412935        -3.7769444776  3.93E-06

  Trace(PS):                                    4.0000000000
  Electronic density on regular grids:         -3.9998172715        0.0001827285
  Core density on regular grids:                3.9961648024       -0.0038351976
  Total charge density on r-space grids:       -0.0036524691
  Total charge density g-space grids:          -0.0036524691

     8 P_Mix/Diag. 0.40E+00    0.0     1.52017322        -3.7766032865  3.41E-04

  Trace(PS):                                    4.0000000000
  Electronic density on regular grids:         -3.9998159470        0.0001840530
  Core density on regular grids:                3.9961648024       -0.0038351976
  Total charge density on r-space grids:       -0.0036511446
  Total charge density g-space grids:          -0.0036511446

     9 P_Mix/Diag. 0.40E+00    0.0     1.49975333        -3.7765131200  9.02E-05

  Trace(PS):                                    4.0000000000
  Electronic density on regular grids:         -3.9998106725        0.0001893275
  Core density on regular grids:                3.9961648024       -0.0038351976
  Total charge density on r-space grids:       -0.0036458702
  Total charge density g-space grids:          -0.0036458702

    10 P_Mix/Diag. 0.40E+00    0.0     1.51902752        -3.7765091885  3.93E-06

  Trace(PS):                                    4.0000000000
  Electronic density on regular grids:         -3.9998150249        0.0001849751
  Core density on regular grids:                3.9961648024       -0.0038351976
  Total charge density on r-space grids:       -0.0036502226
  Total charge density g-space grids:          -0.0036502226

    11 P_Mix/Diag. 0.40E+00    0.0     1.56013903        -3.7764311387  7.80E-05

  Trace(PS):                                    4.0000000000
  Electronic density on regular grids:         -3.9998143641        0.0001856359
  Core density on regular grids:                3.9961648024       -0.0038351976
  Total charge density on r-space grids:       -0.0036495617
  Total charge density g-space grids:          -0.0036495617

    12 P_Mix/Diag. 0.40E+00    0.0     1.55904694        -3.7764136249  1.75E-05

  Trace(PS):                                    4.0000000000
  Electronic density on regular grids:         -3.9998123863        0.0001876137
  Core density on regular grids:                3.9961648024       -0.0038351976
  Total charge density on r-space grids:       -0.0036475840
  Total charge density g-space grids:          -0.0036475840

    13 P_Mix/Diag. 0.40E+00    0.0     1.56132947        -3.7764121144  1.51E-06

  Trace(PS):                                    4.0000000000
  Electronic density on regular grids:         -3.9998140582        0.0001859418
  Core density on regular grids:                3.9961648024       -0.0038351976
  Total charge density on r-space grids:       -0.0036492559
  Total charge density g-space grids:          -0.0036492559

    14 P_Mix/Diag. 0.40E+00    0.0     1.56729773        -3.7763964392  1.57E-05

  Trace(PS):                                    4.0000000000
  Electronic density on regular grids:         -3.9998138046        0.0001861954
  Core density on regular grids:                3.9961648024       -0.0038351976
  Total charge density on r-space grids:       -0.0036490022
  Total charge density g-space grids:          -0.0036490022

    15 P_Mix/Diag. 0.40E+00    0.0     1.56739972        -3.7763930262  3.41E-06

  Trace(PS):                                    4.0000000000
  Electronic density on regular grids:         -3.9998131064        0.0001868936
  Core density on regular grids:                3.9961648024       -0.0038351976
  Total charge density on r-space grids:       -0.0036483040
  Total charge density g-space grids:          -0.0036483040

    16 P_Mix/Diag. 0.40E+00    0.0     1.56750235        -3.7763924613  5.65E-07

  Trace(PS):                                    4.0000000000
  Electronic density on regular grids:         -3.9998137111        0.0001862889
  Core density on regular grids:                3.9961648024       -0.0038351976
  Total charge density on r-space grids:       -0.0036489087
  Total charge density g-space grids:          -0.0036489087

    17 P_Mix/Diag. 0.40E+00    0.0     1.56833622        -3.7763894114  3.05E-06

  Trace(PS):                                    4.0000000000
  Electronic density on regular grids:         -3.9998136200        0.0001863800
  Core density on regular grids:                3.9961648024       -0.0038351976
  Total charge density on r-space grids:       -0.0036488177
  Total charge density g-space grids:          -0.0036488177

    18 P_Mix/Diag. 0.40E+00    0.0     1.56838863        -3.7763887073  7.04E-07

  Trace(PS):                                    4.0000000000
  Electronic density on regular grids:         -3.9998133746        0.0001866254
  Core density on regular grids:                3.9961648024       -0.0038351976
  Total charge density on r-space grids:       -0.0036485722
  Total charge density g-space grids:          -0.0036485722

    19 P_Mix/Diag. 0.40E+00    0.0     1.56836160        -3.7763885132  1.94E-07

  Trace(PS):                                    4.0000000000
  Electronic density on regular grids:         -3.9998135903        0.0001864097
  Core density on regular grids:                3.9961648024       -0.0038351976
  Total charge density on r-space grids:       -0.0036487879
  Total charge density g-space grids:          -0.0036487879

    20 P_Mix/Diag. 0.40E+00    0.0     1.56848147        -3.7763879297  5.83E-07

  Trace(PS):                                    4.0000000000
  Electronic density on regular grids:         -3.9998135580        0.0001864420
  Core density on regular grids:                3.9961648024       -0.0038351976
  Total charge density on r-space grids:       -0.0036487557
  Total charge density g-space grids:          -0.0036487557

    21 P_Mix/Diag. 0.40E+00    0.0     1.56849557        -3.7763877776  1.52E-07

  Trace(PS):                                    4.0000000000
  Electronic density on regular grids:         -3.9998134715        0.0001865285
  Core density on regular grids:                3.9961648024       -0.0038351976
  Total charge density on r-space grids:       -0.0036486691
  Total charge density g-space grids:          -0.0036486691

    22 P_Mix/Diag. 0.40E+00    0.0     1.56848444        -3.7763877174  6.02E-08

  Trace(PS):                                    4.0000000000
  Electronic density on regular grids:         -3.9998135481        0.0001864519
  Core density on regular grids:                3.9961648024       -0.0038351976
  Total charge density on r-space grids:       -0.0036487458
  Total charge density g-space grids:          -0.0036487458

    23 P_Mix/Diag. 0.40E+00    0.0     1.56850227        -3.7763876080  1.09E-07

  Trace(PS):                                    4.0000000000
  Electronic density on regular grids:         -3.9998135367        0.0001864633
  Core density on regular grids:                3.9961648024       -0.0038351976
  Total charge density on r-space grids:       -0.0036487344
  Total charge density g-space grids:          -0.0036487344

    24 P_Mix/Diag. 0.40E+00    0.0     1.56850558        -3.7763875741  3.39E-08

  Trace(PS):                                    4.0000000000
  Electronic density on regular grids:         -3.9998135061        0.0001864939
  Core density on regular grids:                3.9961648024       -0.0038351976
  Total charge density on r-space grids:       -0.0036487038
  Total charge density g-space grids:          -0.0036487038

    25 P_Mix/Diag. 0.40E+00    0.0     1.56850275        -3.7763875567  1.74E-08

  Trace(PS):                                    4.0000000000
  Electronic density on regular grids:         -3.9998135334        0.0001864666
  Core density on regular grids:                3.9961648024       -0.0038351976
  Total charge density on r-space grids:       -0.0036487310
  Total charge density g-space grids:          -0.0036487310

    26 P_Mix/Diag. 0.40E+00    0.0     1.56850544        -3.7763875369  1.99E-08

  Trace(PS):                                    4.0000000000
  Electronic density on regular grids:         -3.9998135293        0.0001864707
  Core density on regular grids:                3.9961648024       -0.0038351976
  Total charge density on r-space grids:       -0.0036487270
  Total charge density g-space grids:          -0.0036487270

    27 P_Mix/Diag. 0.40E+00    0.0     1.56850620        -3.7763875292  7.71E-09

  Trace(PS):                                    4.0000000000
  Electronic density on regular grids:         -3.9998135185        0.0001864815
  Core density on regular grids:                3.9961648024       -0.0038351976
  Total charge density on r-space grids:       -0.0036487161
  Total charge density g-space grids:          -0.0036487161

    28 P_Mix/Diag. 0.40E+00    0.0     1.56850559        -3.7763875244  4.78E-09

  Trace(PS):                                    4.0000000000
  Electronic density on regular grids:         -3.9998135282        0.0001864718
  Core density on regular grids:                3.9961648024       -0.0038351976
  Total charge density on r-space grids:       -0.0036487258
  Total charge density g-space grids:          -0.0036487258

    29 P_Mix/Diag. 0.40E+00    0.0     1.56850598        -3.7763875210  3.41E-09

  Trace(PS):                                    4.0000000000
  Electronic density on regular grids:         -3.9998135267        0.0001864733
  Core density on regular grids:                3.9961648024       -0.0038351976
  Total charge density on r-space grids:       -0.0036487244
  Total charge density g-space grids:          -0.0036487244

    30 P_Mix/Diag. 0.40E+00    0.0     1.56850615        -3.7763875192  1.78E-09

  Trace(PS):                                    4.0000000000
  Electronic density on regular grids:         -3.9998135229        0.0001864771
  Core density on regular grids:                3.9961648024       -0.0038351976
  Total charge density on r-space grids:       -0.0036487205
  Total charge density g-space grids:          -0.0036487205

    31 P_Mix/Diag. 0.40E+00    0.0     1.56850604        -3.7763875179  1.28E-09

  Trace(PS):                                    4.0000000000
  Electronic density on regular grids:         -3.9998135263        0.0001864737
  Core density on regular grids:                3.9961648024       -0.0038351976
  Total charge density on r-space grids:       -0.0036487240
  Total charge density g-space grids:          -0.0036487240

    32 P_Mix/Diag. 0.40E+00    0.0     1.56850608        -3.7763875174  5.14E-10

  Trace(PS):                                    4.0000000000
  Electronic density on regular grids:         -3.9998135258        0.0001864742
  Core density on regular grids:                3.9961648024       -0.0038351976
  Total charge density on r-space grids:       -0.0036487234
  Total charge density g-space grids:          -0.0036487234

    33 P_Mix/Diag. 0.40E+00    0.0     1.56850613        -3.7763875170  4.21E-10

  Trace(PS):                                    4.0000000000
  Electronic density on regular grids:         -3.9998135245        0.0001864755
  Core density on regular grids:                3.9961648024       -0.0038351976
  Total charge density on r-space grids:       -0.0036487221
  Total charge density g-space grids:          -0.0036487221

    34 P_Mix/Diag. 0.40E+00    0.0     1.56850611        -3.7763875166  3.44E-10

  Trace(PS):                                    4.0000000000
  Electronic density on regular grids:         -3.9998135257        0.0001864743
  Core density on regular grids:                3.9961648024       -0.0038351976
  Total charge density on r-space grids:       -0.0036487233
  Total charge density g-space grids:          -0.0036487233

    35 P_Mix/Diag. 0.40E+00    0.0     1.56850611        -3.7763875166  5.08E-11

  Trace(PS):                                    4.0000000000
  Electronic density on regular grids:         -3.9998135255        0.0001864745
  Core density on regular grids:                3.9961648024       -0.0038351976
  Total charge density on r-space grids:       -0.0036487231
  Total charge density g-space grids:          -0.0036487231

    36 P_Mix/Diag. 0.40E+00    0.0     1.56850612        -3.7763875165  1.02E-10

  Trace(PS):                                    4.0000000000
  Electronic density on regular grids:         -3.9998135250        0.0001864750
  Core density on regular grids:                3.9961648024       -0.0038351976
  Total charge density on r-space grids:       -0.0036487226
  Total charge density g-space grids:          -0.0036487226

    37 P_Mix/Diag. 0.40E+00    0.0     1.56850612        -3.7763875164  9.27E-11

  Trace(PS):                                    4.0000000000
  Electronic density on regular grids:         -3.9998135254        0.0001864746
  Core density on regular grids:                3.9961648024       -0.0038351976
  Total charge density on r-space grids:       -0.0036487231
  Total charge density g-space grids:          -0.0036487231

    38 P_Mix/Diag. 0.40E+00    0.0     1.56850612        -3.7763875164 -6.60E-12

  Trace(PS):                                    4.0000000000
  Electronic density on regular grids:         -3.9998135254        0.0001864746
  Core density on regular grids:                3.9961648024       -0.0038351976
  Total charge density on r-space grids:       -0.0036487230
  Total charge density g-space grids:          -0.0036487230

    39 P_Mix/Diag. 0.40E+00    0.0     1.56850612        -3.7763875164  2.54E-11

  Trace(PS):                                    4.0000000000
  Electronic density on regular grids:         -3.9998135252        0.0001864748
  Core density on regular grids:                3.9961648024       -0.0038351976
  Total charge density on r-space grids:       -0.0036487228
  Total charge density g-space grids:          -0.0036487228

    40 P_Mix/Diag. 0.40E+00    0.0     1.56850612        -3.7763875163  2.56E-11

  Trace(PS):                                    4.0000000000
  Electronic density on regular grids:         -3.9998135254        0.0001864746
  Core density on regular grids:                3.9961648024       -0.0038351976
  Total charge density on r-space grids:       -0.0036487230
  Total charge density g-space grids:          -0.0036487230

    41 P_Mix/Diag. 0.40E+00    0.0     1.56850612        -3.7763875163 -6.90E-12

  Trace(PS):                                    4.0000000000
  Electronic density on regular grids:         -3.9998135253        0.0001864747
  Core density on regular grids:                3.9961648024       -0.0038351976
  Total charge density on r-space grids:       -0.0036487230
  Total charge density g-space grids:          -0.0036487230

    42 P_Mix/Diag. 0.40E+00    0.0     1.56850612        -3.7763875163  6.63E-12

  Trace(PS):                                    4.0000000000
  Electronic density on regular grids:         -3.9998135253        0.0001864747
  Core density on regular grids:                3.9961648024       -0.0038351976
  Total charge density on r-space grids:       -0.0036487229
  Total charge density g-space grids:          -0.0036487229

    43 P_Mix/Diag. 0.40E+00    0.0     1.56850612        -3.7763875163  7.32E-12

  Trace(PS):                                    4.0000000000
  Electronic density on regular grids:         -3.9998135253        0.0001864747
  Core density on regular grids:                3.9961648024       -0.0038351976
  Total charge density on r-space grids:       -0.0036487230
  Total charge density g-space grids:          -0.0036487230

    44 P_Mix/Diag. 0.40E+00    0.0     1.56850612        -3.7763875163 -3.28E-12

  Trace(PS):                                    4.0000000000
  Electronic density on regular grids:         -3.9998135253        0.0001864747
  Core density on regular grids:                3.9961648024       -0.0038351976
  Total charge density on r-space grids:       -0.0036487230
  Total charge density g-space grids:          -0.0036487230

    45 P_Mix/Diag. 0.40E+00    0.0     1.56850612        -3.7763875163  1.82E-12

  Trace(PS):                                    4.0000000000
  Electronic density on regular grids:         -3.9998135253        0.0001864747
  Core density on regular grids:                3.9961648024       -0.0038351976
  Total charge density on r-space grids:       -0.0036487229
  Total charge density g-space grids:          -0.0036487229

    46 P_Mix/Diag. 0.40E+00    0.0     1.56850612        -3.7763875163  2.17E-12

  Trace(PS):                                    4.0000000000
  Electronic density on regular grids:         -3.9998135253        0.0001864747
  Core density on regular grids:                3.9961648024       -0.0038351976
  Total charge density on r-space grids:       -0.0036487230
  Total charge density g-space grids:          -0.0036487230

    47 P_Mix/Diag. 0.40E+00    0.0     1.56850612        -3.7763875163 -1.31E-12

  Trace(PS):                                    4.0000000000
  Electronic density on regular grids:         -3.9998135253        0.0001864747
  Core density on regular grids:                3.9961648024       -0.0038351976
  Total charge density on r-space grids:       -0.0036487229
  Total charge density g-space grids:          -0.0036487229

    48 P_Mix/Diag. 0.40E+00    0.0     1.56850612        -3.7763875163  5.27E-13

  Trace(PS):                                    4.0000000000
  Electronic density on regular grids:         -3.9998135253        0.0001864747
  Core density on regular grids:                3.9961648024       -0.0038351976
  Total charge density on r-space grids:       -0.0036487229
  Total charge density g-space grids:          -0.0036487229

    49 P_Mix/Diag. 0.40E+00    0.0     1.56850612        -3.7763875163  6.70E-13

  Trace(PS):                                    4.0000000000
  Electronic density on regular grids:         -3.9998135253        0.0001864747
  Core density on regular grids:                3.9961648024       -0.0038351976
  Total charge density on r-space grids:       -0.0036487229
  Total charge density g-space grids:          -0.0036487229

    50 P_Mix/Diag. 0.40E+00    0.0     1.56850612        -3.7763875163 -4.92E-13

  Trace(PS):                                    4.0000000000
  Electronic density on regular grids:         -3.9998135253        0.0001864747
  Core density on regular grids:                3.9961648024       -0.0038351976
  Total charge density on r-space grids:       -0.0036487229
  Total charge density g-space grids:          -0.0036487229

    51 P_Mix/Diag. 0.40E+00    0.0     1.56850612        -3.7763875163  1.61E-13

  Trace(PS):                                    4.0000000000
  Electronic density on regular grids:         -3.9998135253        0.0001864747
  Core density on regular grids:                3.9961648024       -0.0038351976
  Total charge density on r-space grids:       -0.0036487229
  Total charge density g-space grids:          -0.0036487229

    52 P_Mix/Diag. 0.40E+00    0.0     1.56850612        -3.7763875163  2.15E-13

  Trace(PS):                                    4.0000000000
  Electronic density on regular grids:         -3.9998135253        0.0001864747
  Core density on regular grids:                3.9961648024       -0.0038351976
  Total charge density on r-space grids:       -0.0036487229
  Total charge density g-space grids:          -0.0036487229

    53 P_Mix/Diag. 0.40E+00    0.0     1.56850612        -3.7763875163 -1.78E-13

  Trace(PS):                                    4.0000000000
  Electronic density on regular grids:         -3.9998135253        0.0001864747
  Core density on regular grids:                3.9961648024       -0.0038351976
  Total charge density on r-space grids:       -0.0036487229
  Total charge density g-space grids:          -0.0036487229

    54 P_Mix/Diag. 0.40E+00    0.0     1.56850612        -3.7763875163  4.88E-14

  Trace(PS):                                    4.0000000000
  Electronic density on regular grids:         -3.9998135253        0.0001864747
  Core density on regular grids:                3.9961648024       -0.0038351976
  Total charge density on r-space grids:       -0.0036487229
  Total charge density g-space grids:          -0.0036487229

    55 P_Mix/Diag. 0.40E+00    0.0     1.56850612        -3.7763875163  7.28E-14

  Trace(PS):                                    4.0000000000
  Electronic density on regular grids:         -3.9998135253        0.0001864747
  Core density on regular grids:                3.9961648024       -0.0038351976
  Total charge density on r-space grids:       -0.0036487229
  Total charge density g-space grids:          -0.0036487229

    56 P_Mix/Diag. 0.40E+00    0.0     1.56850612        -3.7763875163 -6.57E-14

  Trace(PS):                                    4.0000000000
  Electronic density on regular grids:         -3.9998135253        0.0001864747
  Core density on regular grids:                3.9961648024       -0.0038351976
  Total charge density on r-space grids:       -0.0036487229
  Total charge density g-space grids:          -0.0036487229

    57 P_Mix/Diag. 0.40E+00    0.0     1.56850612        -3.7763875163  1.69E-14

  Trace(PS):                                    4.0000000000
  Electronic density on regular grids:         -3.9998135253        0.0001864747
  Core density on regular grids:                3.9961648024       -0.0038351976
  Total charge density on r-space grids:       -0.0036487229
  Total charge density g-space grids:          -0.0036487229

    58 P_Mix/Diag. 0.40E+00    0.0     1.56850612        -3.7763875163  2.49E-14

  Trace(PS):                                    4.0000000000
  Electronic density on regular grids:         -3.9998135253        0.0001864747
  Core density on regular grids:                3.9961648024       -0.0038351976
  Total charge density on r-space grids:       -0.0036487229
  Total charge density g-space grids:          -0.0036487229

    59 P_Mix/Diag. 0.40E+00    0.0     1.56850612        -3.7763875163 -2.31E-14

  Trace(PS):                                    4.0000000000
  Electronic density on regular grids:         -3.9998135253        0.0001864747
  Core density on regular grids:                3.9961648024       -0.0038351976
  Total charge density on r-space grids:       -0.0036487229
  Total charge density g-space grids:          -0.0036487229

    60 P_Mix/Diag. 0.40E+00    0.0     1.56850612        -3.7763875163  6.22E-15

  Trace(PS):                                    4.0000000000
  Electronic density on regular grids:         -3.9998135253        0.0001864747
  Core density on regular grids:                3.9961648024       -0.0038351976
  Total charge density on r-space grids:       -0.0036487229
  Total charge density g-space grids:          -0.0036487229

    61 P_Mix/Diag. 0.40E+00    0.0     1.56850612        -3.7763875163  6.22E-15

  Trace(PS):                                    4.0000000000
  Electronic density on regular grids:         -3.9998135253        0.0001864747
  Core density on regular grids:                3.9961648024       -0.0038351976
  Total charge density on r-space grids:       -0.0036487229
  Total charge density g-space grids:          -0.0036487229

    62 P_Mix/Diag. 0.40E+00    0.0     1.56850612        -3.7763875163 -6.22E-15

  Trace(PS):                                    4.0000000000
  Electronic density on regular grids:         -3.9998135253        0.0001864747
  Core density on regular grids:                3.9961648024       -0.0038351976
  Total charge density on r-space grids:       -0.0036487229
  Total charge density g-space grids:          -0.0036487229

    63 P_Mix/Diag. 0.40E+00    0.0     1.56850612        -3.7763875163  8.88E-16

  Trace(PS):                                    4.0000000000
  Electronic density on regular grids:         -3.9998135253        0.0001864747
  Core density on regular grids:                3.9961648024       -0.0038351976
  Total charge density on r-space grids:       -0.0036487229
  Total charge density g-space grids:          -0.0036487229

    64 P_Mix/Diag. 0.40E+00    0.0     1.56850612        -3.7763875163  3.55E-15

  Trace(PS):                                    4.0000000000
  Electronic density on regular grids:         -3.9998135253        0.0001864747
  Core density on regular grids:                3.9961648024       -0.0038351976
  Total charge density on r-space grids:       -0.0036487229
  Total charge density g-space grids:          -0.0036487229

    65 P_Mix/Diag. 0.40E+00    0.0     1.56850612        -3.7763875163 -2.66E-15

  Trace(PS):                                    4.0000000000
  Electronic density on regular grids:         -3.9998135253        0.0001864747
  Core density on regular grids:                3.9961648024       -0.0038351976
  Total charge density on r-space grids:       -0.0036487229
  Total charge density g-space grids:          -0.0036487229

    66 P_Mix/Diag. 0.40E+00    0.0     1.56850612        -3.7763875163  0.00E+00

  Trace(PS):                                    4.0000000000
  Electronic density on regular grids:         -3.9998135253        0.0001864747
  Core density on regular grids:                3.9961648024       -0.0038351976
  Total charge density on r-space grids:       -0.0036487229
  Total charge density g-space grids:          -0.0036487229

    67 P_Mix/Diag. 0.40E+00    0.0     1.56850612        -3.7763875163  8.88E-16

  Trace(PS):                                    4.0000000000
  Electronic density on regular grids:         -3.9998135253        0.0001864747
  Core density on regular grids:                3.9961648024       -0.0038351976
  Total charge density on r-space grids:       -0.0036487229
  Total charge density g-space grids:          -0.0036487229

    68 P_Mix/Diag. 0.40E+00    0.0     1.56850612        -3.7763875163  0.00E+00

  Trace(PS):                                    4.0000000000
  Electronic density on regular grids:         -3.9998135253        0.0001864747
  Core density on regular grids:                3.9961648024       -0.0038351976
  Total charge density on r-space grids:       -0.0036487229
  Total charge density g-space grids:          -0.0036487229

    69 P_Mix/Diag. 0.40E+00    0.0     1.56850612        -3.7763875163  0.00E+00

  Trace(PS):                                    4.0000000000
  Electronic density on regular grids:         -3.9998135253        0.0001864747
  Core density on regular grids:                3.9961648024       -0.0038351976
  Total charge density on r-space grids:       -0.0036487229
  Total charge density g-space grids:          -0.0036487229

    70 P_Mix/Diag. 0.40E+00    0.0     1.56850612        -3.7763875163  0.00E+00

  Trace(PS):                                    4.0000000000
  Electronic density on regular grids:         -3.9998135253        0.0001864747
  Core density on regular grids:                3.9961648024       -0.0038351976
  Total charge density on r-space grids:       -0.0036487229
  Total charge density g-space grids:          -0.0036487229

    71 P_Mix/Diag. 0.40E+00    0.0     1.56850612        -3.7763875163  1.33E-15

  Trace(PS):                                    4.0000000000
  Electronic density on regular grids:         -3.9998135253        0.0001864747
  Core density on regular grids:                3.9961648024       -0.0038351976
  Total charge density on r-space grids:       -0.0036487229
  Total charge density g-space grids:          -0.0036487229

    72 P_Mix/Diag. 0.40E+00    0.0     1.56850612        -3.7763875163 -2.22E-15

  Trace(PS):                                    4.0000000000
  Electronic density on regular grids:         -3.9998135253        0.0001864747
  Core density on regular grids:                3.9961648024       -0.0038351976
  Total charge density on r-space grids:       -0.0036487229
  Total charge density g-space grids:          -0.0036487229

    73 P_Mix/Diag. 0.40E+00    0.0     1.56850612        -3.7763875163  8.88E-16

  Trace(PS):                                    4.0000000000
  Electronic density on regular grids:         -3.9998135253        0.0001864747
  Core density on regular grids:                3.9961648024       -0.0038351976
  Total charge density on r-space grids:       -0.0036487229
  Total charge density g-space grids:          -0.0036487229

    74 P_Mix/Diag. 0.40E+00    0.0     1.56850612        -3.7763875163  0.00E+00

  Trace(PS):                                    4.0000000000
  Electronic density on regular grids:         -3.9998135253        0.0001864747
  Core density on regular grids:                3.9961648024       -0.0038351976
  Total charge density on r-space grids:       -0.0036487229
  Total charge density g-space grids:          -0.0036487229

    75 P_Mix/Diag. 0.40E+00    0.0     1.56850612        -3.7763875163 -4.44E-16

  Trace(PS):                                    4.0000000000
  Electronic density on regular grids:         -3.9998135253        0.0001864747
  Core density on regular grids:                3.9961648024       -0.0038351976
  Total charge density on r-space grids:       -0.0036487229
  Total charge density g-space grids:          -0.0036487229

    76 P_Mix/Diag. 0.40E+00    0.0     1.56850612        -3.7763875163  4.44E-16

  Trace(PS):                                    4.0000000000
  Electronic density on regular grids:         -3.9998135253        0.0001864747
  Core density on regular grids:                3.9961648024       -0.0038351976
  Total charge density on r-space grids:       -0.0036487229
  Total charge density g-space grids:          -0.0036487229

    77 P_Mix/Diag. 0.40E+00    0.0     1.56850612        -3.7763875163 -8.88E-16

  Trace(PS):                                    4.0000000000
  Electronic density on regular grids:         -3.9998135253        0.0001864747
  Core density on regular grids:                3.9961648024       -0.0038351976
  Total charge density on r-space grids:       -0.0036487229
  Total charge density g-space grids:          -0.0036487229

    78 P_Mix/Diag. 0.40E+00    0.0     1.56850612        -3.7763875163 -8.88E-16

  Trace(PS):                                    4.0000000000
  Electronic density on regular grids:         -3.9998135253        0.0001864747
  Core density on regular grids:                3.9961648024       -0.0038351976
  Total charge density on r-space grids:       -0.0036487229
  Total charge density g-space grids:          -0.0036487229

    79 P_Mix/Diag. 0.40E+00    0.0     1.56850612        -3.7763875163  1.78E-15

  Trace(PS):                                    4.0000000000
  Electronic density on regular grids:         -3.9998135253        0.0001864747
  Core density on regular grids:                3.9961648024       -0.0038351976
  Total charge density on r-space grids:       -0.0036487229
  Total charge density g-space grids:          -0.0036487229

    80 P_Mix/Diag. 0.40E+00    0.0     1.56850612        -3.7763875163 -8.88E-16

  Trace(PS):                                    4.0000000000
  Electronic density on regular grids:         -3.9998135253        0.0001864747
  Core density on regular grids:                3.9961648024       -0.0038351976
  Total charge density on r-space grids:       -0.0036487229
  Total charge density g-space grids:          -0.0036487229

    81 P_Mix/Diag. 0.40E+00    0.0     1.56850612        -3.7763875163  0.00E+00

  Trace(PS):                                    4.0000000000
  Electronic density on regular grids:         -3.9998135253        0.0001864747
  Core density on regular grids:                3.9961648024       -0.0038351976
  Total charge density on r-space grids:       -0.0036487229
  Total charge density g-space grids:          -0.0036487229

    82 P_Mix/Diag. 0.40E+00    0.0     1.56850612        -3.7763875163  1.78E-15

  Trace(PS):                                    4.0000000000
  Electronic density on regular grids:         -3.9998135253        0.0001864747
  Core density on regular grids:                3.9961648024       -0.0038351976
  Total charge density on r-space grids:       -0.0036487229
  Total charge density g-space grids:          -0.0036487229

    83 P_Mix/Diag. 0.40E+00    0.0     1.56850612        -3.7763875163 -1.78E-15

  Trace(PS):                                    4.0000000000
  Electronic density on regular grids:         -3.9998135253        0.0001864747
  Core density on regular grids:                3.9961648024       -0.0038351976
  Total charge density on r-space grids:       -0.0036487229
  Total charge density g-space grids:          -0.0036487229

    84 P_Mix/Diag. 0.40E+00    0.0     1.56850612        -3.7763875163  0.00E+00

  Trace(PS):                                    4.0000000000
  Electronic density on regular grids:         -3.9998135253        0.0001864747
  Core density on regular grids:                3.9961648024       -0.0038351976
  Total charge density on r-space grids:       -0.0036487229
  Total charge density g-space grids:          -0.0036487229

    85 P_Mix/Diag. 0.40E+00    0.0     1.56850612        -3.7763875163  4.44E-16

  Trace(PS):                                    4.0000000000
  Electronic density on regular grids:         -3.9998135253        0.0001864747
  Core density on regular grids:                3.9961648024       -0.0038351976
  Total charge density on r-space grids:       -0.0036487229
  Total charge density g-space grids:          -0.0036487229

    86 P_Mix/Diag. 0.40E+00    0.0     1.56850612        -3.7763875163  4.44E-16

  Trace(PS):                                    4.0000000000
  Electronic density on regular grids:         -3.9998135253        0.0001864747
  Core density on regular grids:                3.9961648024       -0.0038351976
  Total charge density on r-space grids:       -0.0036487229
  Total charge density g-space grids:          -0.0036487229

    87 P_Mix/Diag. 0.40E+00    0.0     1.56850612        -3.7763875163 -8.88E-16

  Trace(PS):                                    4.0000000000
  Electronic density on regular grids:         -3.9998135253        0.0001864747
  Core density on regular grids:                3.9961648024       -0.0038351976
  Total charge density on r-space grids:       -0.0036487229
  Total charge density g-space grids:          -0.0036487229

    88 P_Mix/Diag. 0.40E+00    0.0     1.56850612        -3.7763875163  8.88E-16

  Trace(PS):                                    4.0000000000
  Electronic density on regular grids:         -3.9998135253        0.0001864747
  Core density on regular grids:                3.9961648024       -0.0038351976
  Total charge density on r-space grids:       -0.0036487229
  Total charge density g-space grids:          -0.0036487229

    89 P_Mix/Diag. 0.40E+00    0.0     1.56850612        -3.7763875163  0.00E+00

  Trace(PS):                                    4.0000000000
  Electronic density on regular grids:         -3.9998135253        0.0001864747
  Core density on regular grids:                3.9961648024       -0.0038351976
  Total charge density on r-space grids:       -0.0036487229
  Total charge density g-space grids:          -0.0036487229

    90 P_Mix/Diag. 0.40E+00    0.0     1.56850612        -3.7763875163 -1.78E-15

  Trace(PS):                                    4.0000000000
  Electronic density on regular grids:         -3.9998135253        0.0001864747
  Core density on regular grids:                3.9961648024       -0.0038351976
  Total charge density on r-space grids:       -0.0036487229
  Total charge density g-space grids:          -0.0036487229

    91 P_Mix/Diag. 0.40E+00    0.0     1.56850612        -3.7763875163  1.78E-15

  Trace(PS):                                    4.0000000000
  Electronic density on regular grids:         -3.9998135253        0.0001864747
  Core density on regular grids:                3.9961648024       -0.0038351976
  Total charge density on r-space grids:       -0.0036487229
  Total charge density g-space grids:          -0.0036487229

    92 P_Mix/Diag. 0.40E+00    0.0     1.56850612        -3.7763875163  4.44E-16

  Trace(PS):                                    4.0000000000
  Electronic density on regular grids:         -3.9998135253        0.0001864747
  Core density on regular grids:                3.9961648024       -0.0038351976
  Total charge density on r-space grids:       -0.0036487229
  Total charge density g-space grids:          -0.0036487229

    93 P_Mix/Diag. 0.40E+00    0.0     1.56850612        -3.7763875163 -4.44E-16

  Trace(PS):                                    4.0000000000
  Electronic density on regular grids:         -3.9998135253        0.0001864747
  Core density on regular grids:                3.9961648024       -0.0038351976
  Total charge density on r-space grids:       -0.0036487229
  Total charge density g-space grids:          -0.0036487229

    94 P_Mix/Diag. 0.40E+00    0.0     1.56850612        -3.7763875163  8.88E-16

  Trace(PS):                                    4.0000000000
  Electronic density on regular grids:         -3.9998135253        0.0001864747
  Core density on regular grids:                3.9961648024       -0.0038351976
  Total charge density on r-space grids:       -0.0036487229
  Total charge density g-space grids:          -0.0036487229

    95 P_Mix/Diag. 0.40E+00    0.0     1.56850612        -3.7763875163 -4.44E-16

  Trace(PS):                                    4.0000000000
  Electronic density on regular grids:         -3.9998135253        0.0001864747
  Core density on regular grids:                3.9961648024       -0.0038351976
  Total charge density on r-space grids:       -0.0036487229
  Total charge density g-space grids:          -0.0036487229

    96 P_Mix/Diag. 0.40E+00    0.0     1.56850612        -3.7763875163 -2.22E-15

  Trace(PS):                                    4.0000000000
  Electronic density on regular grids:         -3.9998135253        0.0001864747
  Core density on regular grids:                3.9961648024       -0.0038351976
  Total charge density on r-space grids:       -0.0036487229
  Total charge density g-space grids:          -0.0036487229

    97 P_Mix/Diag. 0.40E+00    0.0     1.56850612        -3.7763875163  1.78E-15

  Trace(PS):                                    4.0000000000
  Electronic density on regular grids:         -3.9998135253        0.0001864747
  Core density on regular grids:                3.9961648024       -0.0038351976
  Total charge density on r-space grids:       -0.0036487229
  Total charge density g-space grids:          -0.0036487229

    98 P_Mix/Diag. 0.40E+00    0.0     1.56850612        -3.7763875163  0.00E+00

  Trace(PS):                                    4.0000000000
  Electronic density on regular grids:         -3.9998135253        0.0001864747
  Core density on regular grids:                3.9961648024       -0.0038351976
  Total charge density on r-space grids:       -0.0036487229
  Total charge density g-space grids:          -0.0036487229

    99 P_Mix/Diag. 0.40E+00    0.0     1.56850612        -3.7763875163 -2.22E-15

  Trace(PS):                                    4.0000000000
  Electronic density on regular grids:         -3.9998135253        0.0001864747
  Core density on regular grids:                3.9961648024       -0.0038351976
  Total charge density on r-space grids:       -0.0036487229
  Total charge density g-space grids:          -0.0036487229

   100 P_Mix/Diag. 0.40E+00    0.0     1.56850612        -3.7763875163  4.00E-15

  *** SCF run NOT converged ***


  Electronic density on regular grids:         -3.9998135253        0.0001864747
  Core density on regular grids:                3.9961648024       -0.0038351976
  Total charge density on r-space grids:       -0.0036487229
  Total charge density g-space grids:          -0.0036487229

  Overlap energy of the core charge distribution:               0.00000000000000
  Self energy of the core charge distribution:                -10.25799242814102
  Core Hamiltonian energy:                                      1.96102600837402
  Hartree energy:                                               5.52160896270667
  Exchange-correlation energy:                                 -1.00103005927231

  Total energy:                                                -3.77638751633265


 MULLIKEN POPULATION ANALYSIS

 #  Atom  Element  Kind  Atomic population                Net charge
       1     Si       1          4.000000                  0.000000
 # Total charge                  4.000000                  0.000000


 !-----------------------------------------------------------------------------!
                           Hirschfeld Charges

  #Atom  Element  Kind  Ref Charge     Population                     Net charge
      1       Si     1       4.000          3.460                          0.540

  Total Charge                                                             0.540
 !-----------------------------------------------------------------------------!

  Trace(PS):                                    4.0000000000
  Electronic density on regular grids:         -3.9998135253        0.0001864747
  Core density on regular grids:                3.9961648024       -0.0038351976
  Total charge density on r-space grids:       -0.0036487229
  Total charge density g-space grids:          -0.0036487229


 ENERGY| Total FORCE_EVAL ( QS ) energy (a.u.):               -3.757935186937051


 -------------------------------------------------------------------------------
 -                                                                             -
 -                                DBCSR STATISTICS                             -
 -                                                                             -
 -------------------------------------------------------------------------------
 COUNTER                                      CPU                  ACC      ACC%
 number of processed stacks                   101                    0       0.0
 matmuls inhomo. stacks                         0                    0       0.0
 matmuls total                                101                    0       0.0
 flops  13 x   13 x    2                    68276                    0       0.0
 flops total                                68276                    0       0.0
 marketing flops                            68276
 -------------------------------------------------------------------------------

 -------------------------------------------------------------------------------
 ----                             MULTIGRID INFO                            ----
 -------------------------------------------------------------------------------
 count for grid        1:            311          cutoff [a.u.]           25.00
 count for grid        2:            332          cutoff [a.u.]            8.33
 total gridlevel count  :            643

 -------------------------------------------------------------------------------
 -                                                                             -
 -                         MESSAGE PASSING PERFORMANCE                         -
 -                                                                             -
 -------------------------------------------------------------------------------

 ROUTINE             CALLS  TOT TIME [s]  AVE VOLUME [Bytes]  PERFORMANCE [MB/s]
 MP_Group                3         0.000
 MP_Bcast              102         0.000                  4.                1.37
 MP_Allreduce         1170         0.001                  8.               14.59
 MP_Sync                 2         0.000
 MP_Alltoall          2316         0.001                522.              824.11
 MP_Wait              2424         0.001
 MP_ISend              808         0.001                228.              126.83
 MP_IRecv              808         0.000                228.              400.63
 MP_Memory            2424         0.001
 -------------------------------------------------------------------------------


 -------------------------------------------------------------------------------
 -                                                                             -
 -                           R E F E R E N C E S                               -
 -                                                                             -
 -------------------------------------------------------------------------------
 
 CP2K version 2.6.2, the CP2K developers group (2015).
 CP2K is freely available from http://www.cp2k.org/ .

 Borstnik, U; VandeVondele, J; Weber, V; Hutter, J. 
 PARALLEL COMPUTING, 40 (5-6), 47-58 (2014). 
 Sparse matrix multiplication: The distributed block-compressed sparse
 row library.
 http://dx.doi.org/10.1016/j.parco.2014.03.012


 Hutter, J; Iannuzzi, M; Schiffmann, F; VandeVondele, J. 
 WILEY INTERDISCIPLINARY REVIEWS-COMPUTATIONAL MOLECULAR SCIENCE, 4 (1), 15-25 (2014). 
 CP2K: atomistic simulations of condensed matter systems.
 http://dx.doi.org/10.1002/wcms.1159


 Krack, M. 
 THEORETICAL CHEMISTRY ACCOUNTS, 114 (1-3), 145-152 (2005). 
 Pseudopotentials for H to Kr optimized for gradient-corrected
 exchange-correlation functionals.
 http://dx.doi.org/10.1007/s00214-005-0655-y


 VandeVondele, J; Krack, M; Mohamed, F; Parrinello, M; Chassaing, T;
 Hutter, J. COMPUTER PHYSICS COMMUNICATIONS, 167 (2), 103-128 (2005). 
 QUICKSTEP: Fast and accurate density functional calculations using a
 mixed Gaussian and plane waves approach.
 http://dx.doi.org/10.1016/j.cpc.2004.12.014


 Frigo, M; Johnson, SG. 
 PROCEEDINGS OF THE IEEE, 93 (2), 216-231 (2005). 
 The design and implementation of FFTW3.
 http://dx.doi.org/10.1109/JPROC.2004.840301


 Hartwigsen, C; Goedecker, S; Hutter, J. 
 PHYSICAL REVIEW B, 58 (7), 3641-3662 (1998). 
 Relativistic separable dual-space Gaussian pseudopotentials from H to Rn.
 http://dx.doi.org/10.1103/PhysRevB.58.3641


 Lippert, G; Hutter, J; Parrinello, M. 
 MOLECULAR PHYSICS, 92 (3), 477-487 (1997). 
 A hybrid Gaussian and plane wave density functional scheme.
 http://dx.doi.org/10.1080/002689797170220


 Perdew, JP; Burke, K; Ernzerhof, M. 
 PHYSICAL REVIEW LETTERS, 77 (18), 3865-3868 (1996). 
 Generalized gradient approximation made simple.
 http://dx.doi.org/10.1103/PhysRevLett.77.3865


 Goedecker, S; Teter, M; Hutter, J. 
 PHYSICAL REVIEW B, 54 (3), 1703-1710 (1996). 
 Separable dual-space Gaussian pseudopotentials.
 http://dx.doi.org/10.1103/PhysRevB.54.1703


 -------------------------------------------------------------------------------
 -                                                                             -
 -                                T I M I N G                                  -
 -                                                                             -
 -------------------------------------------------------------------------------
 SUBROUTINE                       CALLS  ASD         SELF TIME        TOTAL TIME
                                MAXIMUM       AVERAGE  MAXIMUM  AVERAGE  MAXIMUM
 CP2K                                 1  1.0    0.002    0.002    1.627    1.627
 qs_forces                            1  2.0    0.000    0.000    1.601    1.601
 qs_energies_scf                      1  3.0    0.000    0.000    1.587    1.587
 scf_env_do_scf                       1  4.0    0.000    0.000    1.572    1.572
 scf_env_do_scf_inner_loop          100  5.0    0.008    0.008    1.572    1.572
 rebuild_ks_matrix                  101  7.0    0.000    0.000    1.317    1.317
 qs_ks_build_kohn_sham_matrix       101  8.0    0.009    0.009    1.317    1.317
 qs_ks_update_qs_env                100  6.0    0.001    0.001    1.307    1.307
 qs_vxc_create                      101  9.0    0.001    0.001    1.105    1.105
 xc_vxc_pw_create                   101 10.0    0.023    0.023    1.104    1.104
 xc_rho_set_and_dset_create         101 11.0    0.054    0.054    0.901    0.901
 xc_functional_eval                 101 12.0    0.009    0.009    0.717    0.717
 pbe_lda_eval                       101 13.0    0.708    0.708    0.708    0.708
 fft_wrap_pw1pw2                   1314 10.7    0.005    0.005    0.418    0.418
 fft_wrap_pw1pw2_30                1112 11.8    0.024    0.024    0.401    0.401
 fft3d_s                           1315 12.7    0.271    0.271    0.281    0.281
 qs_rho_update_rho                  101  6.0    0.000    0.000    0.150    0.150
 calculate_rho_elec                 101  7.0    0.058    0.058    0.150    0.150
 sum_up_and_integrate               101  9.0    0.003    0.003    0.135    0.135
 integrate_v_rspace                 101 10.0    0.077    0.077    0.132    0.132
 density_rs2pw                      101  8.0    0.001    0.001    0.091    0.091
 calculate_dm_sparse                100  6.0    0.000    0.000    0.058    0.058
 cp_dbcsr_plus_fm_fm_t_native       101  7.0    0.001    0.001    0.058    0.058
 pw_scatter_s                       707 13.0    0.056    0.056    0.056    0.056
 pw_gather_s                        607 12.5    0.051    0.051    0.051    0.051
 potential_pw2rs                    101 11.0    0.001    0.001    0.049    0.049
 dbcsr_mm_cannon_multiply           101  8.0    0.004    0.004    0.043    0.043
 pw_derive                          606 11.5    0.039    0.039    0.039    0.039
 -------------------------------------------------------------------------------

  **** **** ******  **  PROGRAM ENDED AT                 2016-04-25 11:54:50.105
 ***** ** ***  *** **   PROGRAM RAN ON                       lauri-Lenovo-Z50-70
 **    ****   ******    PROGRAM RAN BY                                     lauri
 ***** **    ** ** **   PROGRAM PROCESS ID                                 14465
  **** **  *******  **  PROGRAM STOPPED IN /home/lauri/Dropbox/nomad-dev/nomad-l
                                           ab-base/parsers/cp2k/test/unittests/c
                                           p2k_2.6.2/XC_functional/pbe
