     165
 i =       68, E =     -8876.4536557126
 Pt        12.4532762652       17.8805320740       17.8263744487
 Cu        14.2312335812       16.0511744867       17.8364833647
 Cu        14.2573746628       17.8764305567       16.0542054532
 Cu        12.5276008108       17.9335154172       21.4088724855
 Cu        14.2328466890       16.0807993960       21.4525701092
 Cu        14.2159815403       17.7830524694       19.6424680453
 Cu        14.2333540720       17.8752371504       23.2233640368
 Cu        12.5330268153       21.4242309868       17.8705524079
 Cu        14.2261180995       19.6774104286       17.7724704355
 Cu        14.2879718388       21.4664137885       16.0553549940
 Cu        12.4637699583       19.6627546363       19.6264767772
 Cu        12.5313228167       21.3852092014       21.3571293431
 Cu        14.2257350800       19.6522662927       21.4786644700
 Cu        14.2245306742       21.5015793118       19.6220397761
 Cu        14.2318939052       21.4215622054       23.2157923951
 Cu        14.2925834057       23.2204478777       17.8291484180
 Cu        14.2536879273       23.2370078969       21.3969649491
 Cu        16.0067634904       14.2854148229       17.8369482115
 Cu        17.8355428656       12.5320508269       17.8900400917
 Cu        17.7414964993       14.2359741642       16.0583240487
 Cu        15.9773811609       14.3063742878       21.4306422544
 Cu        17.7346331078       12.5321512228       21.3814339542
 Cu        17.7614261137       14.2339971550       19.6252481880
 Cu        17.7195672528       14.2834331609       23.2713223019
 Cu        15.9880827058       17.8940227139       14.3190207185
 Cu        17.7390618536       16.0493220636       14.2252407445
 Pt        17.6527630619       17.9888595730       12.4329916573
 Cu        15.9677449735       16.0175081170       16.0038052142
 Cu        16.0512380316       17.8065066900       17.8029259603
 Cu        17.8285508749       16.0013807031       17.8329492239
 Cu        17.8542666696       17.8277833280       16.0412476696
 Cu        15.9761009170       16.0037993258       19.6261499410
 Cu        16.0142664545       17.8181159922       21.4604890263
 Cu        17.7652189500       16.0106149457       21.4481681335
 Cu        17.8445217739       17.7666782542       19.6020128970
 Cu        15.9254590195       16.0140648431       23.3079034225
 Cu        15.9948921633       17.8706293924       25.0072580829
 Cu        17.7473506540       16.0474225548       25.0412011640
 Cu        17.7869619028       17.8188386215       23.2788985059
 Cu        17.8080040463       17.8846033176       26.7296185684
 Cu        16.0653014281       21.4228812695       14.2941235165
 Cu        17.8257757972       19.6604561618       14.3058639902
 Cu        17.8703127017       21.3546482356       12.5503086890
 Cu        16.0309274751       19.6518917313       16.0482941147
 Cu        16.0688964943       21.4672591174       17.8182444333
 Cu        17.8895080786       19.6216840000       17.8003202250
 Cu        17.8790636662       21.4207092535       16.0485957288
 Pt        16.0686018134       19.6385993364       19.6294919635
 Cu        16.0516573461       21.4521364858       21.4547647270
 Cu        17.8421976859       19.6376341947       21.4831987784
 Cu        17.8848674277       21.4597966709       19.6356588003
 Cu        15.9920296645       19.6390552702       23.2678546801
 Cu        16.0406507223       21.4111450809       25.0219567329
 Cu        17.7654449052       19.6360847175       25.0563629228
 Cu        17.8430017459       21.4256676962       23.2530238721
 Cu        17.8417836452       21.3658247780       26.7764042485
 Cu        17.8598810018       23.1845675672       14.2724764669
 Cu        16.0383161547       23.2599476154       15.9945522460
 Cu        16.1006739994       24.9579819832       17.8291716864
 Cu        17.8825035282       23.2108052873       17.8355508827
 Cu        17.8781978871       24.9577235284       16.0443945419
 Cu        16.0302778712       23.2578854783       19.6355482843
 Cu        16.0768648041       25.0269764186       21.4051706031
 Cu        17.8672105176       23.2277405949       21.4262413993
 Cu        17.8246554406       25.0151306408       19.6334209636
 Pt        15.9783045164       23.3039344639       23.2982134357
 Cu        17.8326016147       23.2323839865       25.0752560863
 Cu        17.8798652155       25.0295230821       23.2340236166
 Cu        17.8999848802       26.6926968467       17.8614648306
 Cu        17.9035746904       26.7291406143       21.3638656834
 Cu        19.6578361825       14.1389280030       17.8110568860
 Cu        21.4766764572       12.5205050651       17.9204096072
 Cu        21.6028334802       14.2375665351       16.1168490365
 Cu        19.6396329903       12.4595641781       19.6198394963
 Pt        19.6106446706       14.1651816369       21.5387477816
 Cu        21.5013386241       12.5180729030       21.3961636204
 Cu        21.5109514943       14.2305236535       19.6334954604
 Cu        21.4948098898       14.2822095709       23.2941136963
 Pt        19.6916215583       17.7539856804       14.0993290353
 Cu        21.6168911279       16.0493140566       14.2851633519
 Cu        21.6146009826       17.9610379770       12.5046018898
 Pt        19.6621216930       15.8889781558       15.9831831288
 Cu        19.6626250008       17.8130967060       17.8324697483
 Cu        21.4900124111       16.0209207980       17.8526124038
 Cu        21.4803536884       17.8312103097       16.0535111855
 Cu        19.6491720917       15.9826352791       19.5925844779
 Pt        19.6471048443       17.7735511579       21.4692252214
 Cu        21.4869782609       16.0106913100       21.4686091720
 Cu        21.4752874309       17.8205462062       19.6261352501
 Cu        19.6049615798       15.9585915961       23.3834803031
 Cu        19.6000140511       17.7680949982       25.0792662656
 Cu        21.4577210007       16.0555076943       25.0441421121
 Cu        21.4546790176       17.8147756729       23.3079567744
 Cu        21.3718902954       17.8846153077       26.7626947418
 Cu        19.6646981346       19.6701061935       12.4188045813
 Cu        19.6550891857       21.4641837335       14.2236521318
 Cu        21.5026021106       19.6543761195       14.2561987684
 Cu        21.4122945267       21.3893273704       12.5406180415
 Cu        19.6753662583       19.6309391064       16.0459557594
 Cu        19.6742426355       21.4238923644       17.8349453763
 Cu        21.4681932222       19.6239223792       17.8414900361
 Cu        21.4431172246       21.4233421188       16.0447336824
 Cu        19.6558747365       19.6379519891       19.6202896479
 Cu        19.6370884490       21.4316304886       21.4327040704
 Cu        21.4721097507       19.6248011591       21.4504382637
 Cu        21.4489936963       21.4351431775       19.6507984266
 Cu        19.6006332024       19.6157663842       23.3065309567
 Cu        19.5812373911       21.4631089919       25.1076805791
 Cu        21.4540220475       19.5991278431       25.1026759921
 Pt        21.4343194728       21.4500231324       23.2880834848
 Cu        19.5893763734       19.6026026059       26.8194141108
 Cu        21.3471337706       21.3476810128       26.8077370657
 Cu        21.4524125960       23.1849414510       14.2753023825
 Cu        19.6568804964       23.2306340006       16.0063024973
 Cu        19.6576265839       25.0045699122       17.8048967496
 Cu        21.4334676530       23.2280047840       17.8287383223
 Cu        21.4277927014       24.9610517811       16.0124555257
 Cu        19.6536003101       23.2316092944       19.6374523581
 Cu        19.6231745083       25.0169809591       21.4641027433
 Cu        21.4121749987       23.2614607239       21.4461720329
 Cu        21.4702961168       25.1009748483       19.6376181570
 Cu        19.5925577841       23.2666832157       23.3021549698
 Cu        21.3474211900       23.2446562143       25.1383119465
 Cu        21.3098106154       25.0153636911       23.3334424498
 Cu        21.3522553304       26.7214956756       17.7913318206
 Cu        19.6491733173       26.7845663616       19.6118261165
 Cu        21.2817247227       26.7752171218       21.4812481361
 Cu        23.3276363123       14.2328610305       17.9060819851
 Pt        23.3592574461       14.2676254777       21.4726792864
 Cu        23.3098440077       17.8877559480       14.3167434670
 Cu        23.3798373407       15.9903155535       16.0075776357
 Cu        23.2531148570       17.8510262894       17.8599384424
 Pt        25.1182809817       16.0659909722       17.8692465957
 Cu        25.0304670413       17.9019970809       16.0799113576
 Cu        23.2953374798       16.0520490740       19.6589036312
 Cu        23.2396605716       17.8341116005       21.4770686283
 Cu        25.1004031250       16.1022050634       21.4829236166
 Cu        25.0643956965       17.8694183983       19.7090137320
 Cu        23.3291866697       16.0013798110       23.3512112103
 Cu        23.2367763354       17.8277500049       25.0431306540
 Cu        25.0063580411       17.8551237944       23.2555774251
 Cu        23.2404819013       21.4149980674       14.2806269076
 Cu        23.2652152326       19.6556059905       16.0446087133
 Cu        23.2339471521       21.4270801470       17.8436579217
 Cu        25.0206685889       19.6798869136       17.8459346583
 Cu        25.0155381942       21.4133584361       16.0287563297
 Cu        23.2412884329       19.6441964304       19.6598512420
 Cu        23.2587699506       21.4253458440       21.4569989265
 Cu        25.0023676705       19.6430640883       21.5129219194
 Cu        25.0935148927       21.4943339724       19.6764026121
 Cu        23.2698777488       19.6063232763       23.3254179489
 Cu        23.2125199696       21.4185973997       25.1383395180
 Cu        24.9462228061       21.4232504176       23.3305929622
 Cu        23.2839052585       23.2507854937       15.9697751890
 Cu        23.2006016487       25.0226857428       17.7408615753
 Cu        25.0305763668       23.1788591919       17.7575561778
 Pt        23.3327888612       23.3293646274       19.6405389940
 Pt        23.2022578627       25.1022468216       21.6411975009
 Cu        25.0086718755       23.2375300333       21.6027939578
 Cu        23.2643504876       23.3133459916       23.4506546720
 Cu        26.7832740816       18.0105550503       17.9246739729
 Cu        26.7570225210       17.9593305368       21.4737978652
 Cu        26.7468191364       21.3540183678       17.8372972390
 Cu        26.7899225396       19.7050822031       19.7012707895
 Cu        26.6735352390       21.3659695050       21.5520288444
