 DBCSR| Multiplication driver                                                SMM
 DBCSR| Multrec recursion limit                                              512
 DBCSR| Multiplication stack size                                           1000
 DBCSR| Multiplication size stacks                                             3
 DBCSR| Use subcommunicators                                                   T
 DBCSR| Use MPI combined types                                                 F
 DBCSR| Use MPI memory allocation                                              T
 DBCSR| Use Communication thread                                               T
 DBCSR| Communication thread load                                             87


  **** **** ******  **  PROGRAM STARTED AT               2016-05-26 17:11:53.637
 ***** ** ***  *** **   PROGRAM STARTED ON                   lauri-Lenovo-Z50-70
 **    ****   ******    PROGRAM STARTED BY                                 lauri
 ***** **    ** ** **   PROGRAM PROCESS ID                                 12726
  **** **  *******  **  PROGRAM STARTED IN /home/lauri/Dropbox/nomad-dev/nomad-l
                                           ab-base/parsers/cp2k/test/unittests/c
                                           p2k_2.6.2/geo_opt/filename

 CP2K| version string:                                        CP2K version 2.6.2
 CP2K| source code revision number:                                    svn:15893
 CP2K| is freely available from                             http://www.cp2k.org/
 CP2K| Program compiled at                           ke 4.11.2015 08.48.42 +0200
 CP2K| Program compiled on                                   lauri-Lenovo-Z50-70
 CP2K| Program compiled for                          Linux-x86-64-gfortran_basic
 CP2K| Input file name                                               geo_opt.inp

 GLOBAL| Force Environment number                                              1
 GLOBAL| Basis set file name                                        ../BASIS_SET
 GLOBAL| Geminal file name                                         BASIS_GEMINAL
 GLOBAL| Potential file name                                   ../GTH_POTENTIALS
 GLOBAL| MM Potential file name                                     MM_POTENTIAL
 GLOBAL| Coordinate file name                                      __STD_INPUT__
 GLOBAL| Method name                                                        CP2K
 GLOBAL| Project name                                                        H2O
 GLOBAL| Preferred FFT library                                             FFTW3
 GLOBAL| Preferred diagonalization lib.                                       SL
 GLOBAL| Run type                                                        GEO_OPT
 GLOBAL| All-to-all communication in single precision                          F
 GLOBAL| FFTs using library dependent lengths                                  F
 GLOBAL| Global print level                                               MEDIUM
 GLOBAL| Total number of message passing processes                             1
 GLOBAL| Number of threads for this process                                    1
 GLOBAL| This output is from process                                           0

 MEMORY| system memory details [Kb]
 MEMORY|                        rank 0           min           max       average
 MEMORY| MemTotal              8070360       8070360       8070360       8070360
 MEMORY| MemFree               1201940       1201940       1201940       1201940
 MEMORY| Buffers                295208        295208        295208        295208
 MEMORY| Cached                3678104       3678104       3678104       3678104
 MEMORY| Slab                   226008        226008        226008        226008
 MEMORY| SReclaimable           185124        185124        185124        185124
 MEMORY| MemLikelyFree         5360376       5360376       5360376       5360376


 *** Fundamental physical constants (SI units) ***

 *** Literature: B. J. Mohr and B. N. Taylor,
 ***             CODATA recommended values of the fundamental physical
 ***             constants: 2006, Web Version 5.1
 ***             http://physics.nist.gov/constants

 Speed of light in vacuum [m/s]                             2.99792458000000E+08
 Magnetic constant or permeability of vacuum [N/A**2]       1.25663706143592E-06
 Electric constant or permittivity of vacuum [F/m]          8.85418781762039E-12
 Planck constant (h) [J*s]                                  6.62606896000000E-34
 Planck constant (h-bar) [J*s]                              1.05457162825177E-34
 Elementary charge [C]                                      1.60217648700000E-19
 Electron mass [kg]                                         9.10938215000000E-31
 Electron g factor [ ]                                     -2.00231930436220E+00
 Proton mass [kg]                                           1.67262163700000E-27
 Fine-structure constant                                    7.29735253760000E-03
 Rydberg constant [1/m]                                     1.09737315685270E+07
 Avogadro constant [1/mol]                                  6.02214179000000E+23
 Boltzmann constant [J/K]                                   1.38065040000000E-23
 Atomic mass unit [kg]                                      1.66053878200000E-27
 Bohr radius [m]                                            5.29177208590000E-11

 *** Conversion factors ***

 [u] -> [a.u.]                                              1.82288848426455E+03
 [Angstrom] -> [Bohr] = [a.u.]                              1.88972613288564E+00
 [a.u.] = [Bohr] -> [Angstrom]                              5.29177208590000E-01
 [a.u.] -> [s]                                              2.41888432650478E-17
 [a.u.] -> [fs]                                             2.41888432650478E-02
 [a.u.] -> [J]                                              4.35974393937059E-18
 [a.u.] -> [N]                                              8.23872205491840E-08
 [a.u.] -> [K]                                              3.15774647902944E+05
 [a.u.] -> [kJ/mol]                                         2.62549961709828E+03
 [a.u.] -> [kcal/mol]                                       6.27509468713739E+02
 [a.u.] -> [Pa]                                             2.94210107994716E+13
 [a.u.] -> [bar]                                            2.94210107994716E+08
 [a.u.] -> [atm]                                            2.90362800883016E+08
 [a.u.] -> [eV]                                             2.72113838565563E+01
 [a.u.] -> [Hz]                                             6.57968392072181E+15
 [a.u.] -> [1/cm] (wave numbers)                            2.19474631370540E+05
 [a.u./Bohr**2] -> [1/cm]                                   5.14048714338585E+03
 

 CELL_TOP| Volume [angstrom^3]:                                         1912.997
 CELL_TOP| Vector a [angstrom    12.414     0.000     0.000    |a| =      12.414
 CELL_TOP| Vector b [angstrom     0.000    12.414     0.000    |b| =      12.414
 CELL_TOP| Vector c [angstrom     0.000     0.000    12.414    |c| =      12.414
 CELL_TOP| Angle (b,c), alpha [degree]:                                   90.000
 CELL_TOP| Angle (a,c), beta  [degree]:                                   90.000
 CELL_TOP| Angle (a,b), gamma [degree]:                                   90.000
 CELL_TOP| Numerically orthorhombic:                                         YES

 GENERATE|  Preliminary Number of Bonds generated:                             0
 GENERATE|  Achieved consistency in connectivity generation.

 CELL| Volume [angstrom^3]:                                             1912.997
 CELL| Vector a [angstrom]:      12.414     0.000     0.000    |a| =      12.414
 CELL| Vector b [angstrom]:       0.000    12.414     0.000    |b| =      12.414
 CELL| Vector c [angstrom]:       0.000     0.000    12.414    |c| =      12.414
 CELL| Angle (b,c), alpha [degree]:                                       90.000
 CELL| Angle (a,c), beta  [degree]:                                       90.000
 CELL| Angle (a,b), gamma [degree]:                                       90.000
 CELL| Numerically orthorhombic:                                             YES

 CELL_REF| Volume [angstrom^3]:                                         1912.997
 CELL_REF| Vector a [angstrom    12.414     0.000     0.000    |a| =      12.414
 CELL_REF| Vector b [angstrom     0.000    12.414     0.000    |b| =      12.414
 CELL_REF| Vector c [angstrom     0.000     0.000    12.414    |c| =      12.414
 CELL_REF| Angle (b,c), alpha [degree]:                                   90.000
 CELL_REF| Angle (a,c), beta  [degree]:                                   90.000
 CELL_REF| Angle (a,b), gamma [degree]:                                   90.000
 CELL_REF| Numerically orthorhombic:                                         YES


 ********************************************
 *** ERROR in open_file (MODULE cp_files) ***
 ********************************************

 *** The specified OLD file <../BASIS_SET> cannot be opened. It does not ***
 *** exist.                                                              ***

 *** Program stopped at line number 398 of MODULE cp_files ***

 ===== Routine Calling Stack ===== 

            4 read_qs_kind
            3 create_qs_kind_set
            2 quickstep_create_force_env
            1 CP2K
 DBCSR| Multiplication driver                                                SMM
 DBCSR| Multrec recursion limit                                              512
 DBCSR| Multiplication stack size                                           1000
 DBCSR| Multiplication size stacks                                             3
 DBCSR| Use subcommunicators                                                   T
 DBCSR| Use MPI combined types                                                 F
 DBCSR| Use MPI memory allocation                                              T
 DBCSR| Use Communication thread                                               T
 DBCSR| Communication thread load                                             87


  **** **** ******  **  PROGRAM STARTED AT               2016-05-26 17:12:09.072
 ***** ** ***  *** **   PROGRAM STARTED ON                   lauri-Lenovo-Z50-70
 **    ****   ******    PROGRAM STARTED BY                                 lauri
 ***** **    ** ** **   PROGRAM PROCESS ID                                 12831
  **** **  *******  **  PROGRAM STARTED IN /home/lauri/Dropbox/nomad-dev/nomad-l
                                           ab-base/parsers/cp2k/test/unittests/c
                                           p2k_2.6.2/geo_opt/filename

 CP2K| version string:                                        CP2K version 2.6.2
 CP2K| source code revision number:                                    svn:15893
 CP2K| is freely available from                             http://www.cp2k.org/
 CP2K| Program compiled at                           ke 4.11.2015 08.48.42 +0200
 CP2K| Program compiled on                                   lauri-Lenovo-Z50-70
 CP2K| Program compiled for                          Linux-x86-64-gfortran_basic
 CP2K| Input file name                                               geo_opt.inp

 GLOBAL| Force Environment number                                              1
 GLOBAL| Basis set file name                                     ../../BASIS_SET
 GLOBAL| Geminal file name                                         BASIS_GEMINAL
 GLOBAL| Potential file name                                ../../GTH_POTENTIALS
 GLOBAL| MM Potential file name                                     MM_POTENTIAL
 GLOBAL| Coordinate file name                                      __STD_INPUT__
 GLOBAL| Method name                                                        CP2K
 GLOBAL| Project name                                                        H2O
 GLOBAL| Preferred FFT library                                             FFTW3
 GLOBAL| Preferred diagonalization lib.                                       SL
 GLOBAL| Run type                                                        GEO_OPT
 GLOBAL| All-to-all communication in single precision                          F
 GLOBAL| FFTs using library dependent lengths                                  F
 GLOBAL| Global print level                                               MEDIUM
 GLOBAL| Total number of message passing processes                             1
 GLOBAL| Number of threads for this process                                    1
 GLOBAL| This output is from process                                           0

 MEMORY| system memory details [Kb]
 MEMORY|                        rank 0           min           max       average
 MEMORY| MemTotal              8070360       8070360       8070360       8070360
 MEMORY| MemFree               1135752       1135752       1135752       1135752
 MEMORY| Buffers                295284        295284        295284        295284
 MEMORY| Cached                3688104       3688104       3688104       3688104
 MEMORY| Slab                   226504        226504        226504        226504
 MEMORY| SReclaimable           185280        185280        185280        185280
 MEMORY| MemLikelyFree         5304420       5304420       5304420       5304420


 *** Fundamental physical constants (SI units) ***

 *** Literature: B. J. Mohr and B. N. Taylor,
 ***             CODATA recommended values of the fundamental physical
 ***             constants: 2006, Web Version 5.1
 ***             http://physics.nist.gov/constants

 Speed of light in vacuum [m/s]                             2.99792458000000E+08
 Magnetic constant or permeability of vacuum [N/A**2]       1.25663706143592E-06
 Electric constant or permittivity of vacuum [F/m]          8.85418781762039E-12
 Planck constant (h) [J*s]                                  6.62606896000000E-34
 Planck constant (h-bar) [J*s]                              1.05457162825177E-34
 Elementary charge [C]                                      1.60217648700000E-19
 Electron mass [kg]                                         9.10938215000000E-31
 Electron g factor [ ]                                     -2.00231930436220E+00
 Proton mass [kg]                                           1.67262163700000E-27
 Fine-structure constant                                    7.29735253760000E-03
 Rydberg constant [1/m]                                     1.09737315685270E+07
 Avogadro constant [1/mol]                                  6.02214179000000E+23
 Boltzmann constant [J/K]                                   1.38065040000000E-23
 Atomic mass unit [kg]                                      1.66053878200000E-27
 Bohr radius [m]                                            5.29177208590000E-11

 *** Conversion factors ***

 [u] -> [a.u.]                                              1.82288848426455E+03
 [Angstrom] -> [Bohr] = [a.u.]                              1.88972613288564E+00
 [a.u.] = [Bohr] -> [Angstrom]                              5.29177208590000E-01
 [a.u.] -> [s]                                              2.41888432650478E-17
 [a.u.] -> [fs]                                             2.41888432650478E-02
 [a.u.] -> [J]                                              4.35974393937059E-18
 [a.u.] -> [N]                                              8.23872205491840E-08
 [a.u.] -> [K]                                              3.15774647902944E+05
 [a.u.] -> [kJ/mol]                                         2.62549961709828E+03
 [a.u.] -> [kcal/mol]                                       6.27509468713739E+02
 [a.u.] -> [Pa]                                             2.94210107994716E+13
 [a.u.] -> [bar]                                            2.94210107994716E+08
 [a.u.] -> [atm]                                            2.90362800883016E+08
 [a.u.] -> [eV]                                             2.72113838565563E+01
 [a.u.] -> [Hz]                                             6.57968392072181E+15
 [a.u.] -> [1/cm] (wave numbers)                            2.19474631370540E+05
 [a.u./Bohr**2] -> [1/cm]                                   5.14048714338585E+03
 

 CELL_TOP| Volume [angstrom^3]:                                         1912.997
 CELL_TOP| Vector a [angstrom    12.414     0.000     0.000    |a| =      12.414
 CELL_TOP| Vector b [angstrom     0.000    12.414     0.000    |b| =      12.414
 CELL_TOP| Vector c [angstrom     0.000     0.000    12.414    |c| =      12.414
 CELL_TOP| Angle (b,c), alpha [degree]:                                   90.000
 CELL_TOP| Angle (a,c), beta  [degree]:                                   90.000
 CELL_TOP| Angle (a,b), gamma [degree]:                                   90.000
 CELL_TOP| Numerically orthorhombic:                                         YES

 GENERATE|  Preliminary Number of Bonds generated:                             0
 GENERATE|  Achieved consistency in connectivity generation.

 CELL| Volume [angstrom^3]:                                             1912.997
 CELL| Vector a [angstrom]:      12.414     0.000     0.000    |a| =      12.414
 CELL| Vector b [angstrom]:       0.000    12.414     0.000    |b| =      12.414
 CELL| Vector c [angstrom]:       0.000     0.000    12.414    |c| =      12.414
 CELL| Angle (b,c), alpha [degree]:                                       90.000
 CELL| Angle (a,c), beta  [degree]:                                       90.000
 CELL| Angle (a,b), gamma [degree]:                                       90.000
 CELL| Numerically orthorhombic:                                             YES

 CELL_REF| Volume [angstrom^3]:                                         1912.997
 CELL_REF| Vector a [angstrom    12.414     0.000     0.000    |a| =      12.414
 CELL_REF| Vector b [angstrom     0.000    12.414     0.000    |b| =      12.414
 CELL_REF| Vector c [angstrom     0.000     0.000    12.414    |c| =      12.414
 CELL_REF| Angle (b,c), alpha [degree]:                                   90.000
 CELL_REF| Angle (a,c), beta  [degree]:                                   90.000
 CELL_REF| Angle (a,b), gamma [degree]:                                   90.000
 CELL_REF| Numerically orthorhombic:                                         YES

 *******************************************************************************
 *******************************************************************************
 **                                                                           **
 **     #####                         ##              ##                      **
 **    ##   ##            ##          ##              ##                      **
 **   ##     ##                       ##            ######                    **
 **   ##     ##  ##   ##  ##   #####  ##  ##   ####   ##    #####    #####    **
 **   ##     ##  ##   ##  ##  ##      ## ##   ##      ##   ##   ##  ##   ##   **
 **   ##  ## ##  ##   ##  ##  ##      ####     ###    ##   ######   ######    **
 **    ##  ###   ##   ##  ##  ##      ## ##      ##   ##   ##       ##        **
 **     #######   #####   ##   #####  ##  ##  ####    ##    #####   ##        **
 **           ##                                                    ##        **
 **                                                                           **
 **                                                ... make the atoms dance   **
 **                                                                           **
 **            Copyright (C) by CP2K Developers Group (2000 - 2014)           **
 **                                                                           **
 *******************************************************************************

 DFT| Spin restricted Kohn-Sham (RKS) calculation                            RKS
 DFT| Multiplicity                                                             1
 DFT| Number of spin states                                                    1
 DFT| Charge                                                                   0
 DFT| Self-interaction correction (SIC)                                       NO
 DFT| Cutoffs: density                                              1.000000E-10
 DFT|          gradient                                             1.000000E-10
 DFT|          tau                                                  1.000000E-10
 DFT|          cutoff_smoothing_range                               0.000000E+00
 DFT| XC density smoothing                                                  NONE
 DFT| XC derivatives                                                          PW
 FUNCTIONAL| ROUTINE=NEW
 FUNCTIONAL| PADE:
 FUNCTIONAL| S. Goedecker, M. Teter and J. Hutter, Phys. Rev. B 54, 1703 (1996)

 QS| Method:                                                                 GPW
 QS| Density plane wave grid type                        NON-SPHERICAL FULLSPACE
 QS| Number of grid levels:                                                    4
 QS| Density cutoff [a.u.]:                                                100.0
 QS| Multi grid cutoff [a.u.]: 1) grid level                               100.0
 QS|                           2) grid level                                33.3
 QS|                           3) grid level                                11.1
 QS|                           4) grid level                                 3.7
 QS| Grid level progression factor:                                          3.0
 QS| Relative density cutoff [a.u.]:                                        15.0
 QS| Consistent realspace mapping and integration 
 QS| Interaction thresholds: eps_pgf_orb:                                3.2E-04
 QS|                         eps_filter_matrix:                          0.0E+00
 QS|                         eps_core_charge:                            1.0E-09
 QS|                         eps_rho_gspace:                             1.0E-07
 QS|                         eps_rho_rspace:                             1.0E-07
 QS|                         eps_gvg_rspace:                             3.2E-04
 QS|                         eps_ppl:                                    1.0E-02
 QS|                         eps_ppnl:                                   3.2E-06


 ATOMIC KIND INFORMATION

  1. Atomic kind: O                                     Number of atoms:       1

     Orbital Basis Set                                             DZVP-GTH-PADE

       Number of orbital shell sets:                                           2
       Number of orbital shells:                                               5
       Number of primitive Cartesian functions:                                5
       Number of Cartesian basis functions:                                   14
       Number of spherical basis functions:                                   13
       Norm type:                                                              2

       Normalised Cartesian orbitals:

                        Set   Shell   Orbital            Exponent    Coefficient

                          1       1    2s                8.304404       0.526521
                                                         2.457945      -0.055011
                                                         0.759736      -0.404341
                                                         0.213639      -0.086026

                          1       2    3s                8.304404       0.000000
                                                         2.457945       0.000000
                                                         0.759736       0.000000
                                                         0.213639       0.223960

                          1       3    3px               8.304404      -2.000758
                                                         2.457945      -1.321077
                                                         0.759736      -0.480331
                                                         0.213639      -0.078647
                          1       3    3py               8.304404      -2.000758
                                                         2.457945      -1.321077
                                                         0.759736      -0.480331
                                                         0.213639      -0.078647
                          1       3    3pz               8.304404      -2.000758
                                                         2.457945      -1.321077
                                                         0.759736      -0.480331
                                                         0.213639      -0.078647

                          1       4    4px               8.304404       0.000000
                                                         2.457945       0.000000
                                                         0.759736       0.000000
                                                         0.213639       0.207033
                          1       4    4py               8.304404       0.000000
                                                         2.457945       0.000000
                                                         0.759736       0.000000
                                                         0.213639       0.207033
                          1       4    4pz               8.304404       0.000000
                                                         2.457945       0.000000
                                                         0.759736       0.000000
                                                         0.213639       0.207033

                          2       1    3dx2              0.800000       1.113825
                          2       1    3dxy              0.800000       1.929201
                          2       1    3dxz              0.800000       1.929201
                          2       1    3dy2              0.800000       1.113825
                          2       1    3dyz              0.800000       1.929201
                          2       1    3dz2              0.800000       1.113825

     Potential information for                                       GTH-PADE-q6

       Description:                       Goedecker-Teter-Hutter pseudopotential
                                           Goedecker et al., PRB 54, 1703 (1996)
                                          Hartwigsen et al., PRB 58, 3641 (1998)
                                                      Krack, TCA 114, 145 (2005)

       Gaussian exponent of the core charge distribution:               8.154466
       Electronic configuration (s p d ...):                               2   4

       Parameters of the local part of the GTH pseudopotential:

                          rloc        C1          C2          C3          C4
                        0.247621  -16.580318    2.395701

       Parameters of the non-local part of the GTH pseudopotential:

                   l      r(l)      h(i,j,l)

                   0    0.221786   18.266917
                   1    0.256829

  2. Atomic kind: H                                     Number of atoms:       2

     Orbital Basis Set                                             DZVP-GTH-PADE

       Number of orbital shell sets:                                           2
       Number of orbital shells:                                               3
       Number of primitive Cartesian functions:                                5
       Number of Cartesian basis functions:                                    5
       Number of spherical basis functions:                                    5
       Norm type:                                                              2

       Normalised Cartesian orbitals:

                        Set   Shell   Orbital            Exponent    Coefficient

                          1       1    1s                8.374435      -0.083834
                                                         1.805868      -0.155208
                                                         0.485253      -0.104875
                                                         0.165824      -0.128813

                          1       2    2s                8.374435       0.000000
                                                         1.805868       0.000000
                                                         0.485253       0.000000
                                                         0.165824       0.185202

                          2       1    2px               0.700000       0.912668
                          2       1    2py               0.700000       0.912668
                          2       1    2pz               0.700000       0.912668

     Potential information for                                       GTH-PADE-q1

       Description:                       Goedecker-Teter-Hutter pseudopotential
                                           Goedecker et al., PRB 54, 1703 (1996)
                                          Hartwigsen et al., PRB 58, 3641 (1998)
                                                      Krack, TCA 114, 145 (2005)

       Gaussian exponent of the core charge distribution:              12.500000
       Electronic configuration (s p d ...):                                   1

       Parameters of the local part of the GTH pseudopotential:

                          rloc        C1          C2          C3          C4
                        0.200000   -4.180237    0.725075


 MOLECULE KIND INFORMATION


 All atoms are their own molecule, skipping detailed information


 TOTAL NUMBERS AND MAXIMUM NUMBERS

  Total number of            - Atomic kinds:                                   2
                             - Atoms:                                          3
                             - Shell sets:                                     6
                             - Shells:                                        11
                             - Primitive Cartesian functions:                 15
                             - Cartesian basis functions:                     24
                             - Spherical basis functions:                     23

  Maximum angular momentum of- Orbital basis functions:                        2
                             - Local part of the GTH pseudopotential:          2
                             - Non-local part of the GTH pseudopotential:      0


 MODULE QUICKSTEP:  ATOMIC COORDINATES IN angstrom

  Atom  Kind  Element       X           Y           Z          Z(eff)       Mass

       1     1 O    8   12.235322    1.376642   10.869880      6.00      15.9994
       2     2 H    1   12.415139    2.233125   11.257611      1.00       1.0079
       3     2 H    1   11.922476    1.573799    9.986994      1.00       1.0079




 SCF PARAMETERS         Density guess:                                    ATOMIC
                        --------------------------------------------------------
                        max_scf:                                             200
                        max_scf_history:                                       0
                        max_diis:                                              4
                        --------------------------------------------------------
                        eps_scf:                                        1.00E-05
                        eps_scf_history:                                0.00E+00
                        eps_diis:                                       1.00E-01
                        eps_eigval:                                     1.00E-05
                        --------------------------------------------------------
                        level_shift [a.u.]:                                 0.00
                        --------------------------------------------------------
                        Mixing method:                              PULAY_MIXING
                                                charge density mixing in g-space
                        --------------------------------------------------------
                        No outer SCF

 PW_GRID| Information for grid number                                          1
 PW_GRID| Cutoff [a.u.]                                                    100.0
 PW_GRID| spherical cutoff:                                                   NO
 PW_GRID|   Bounds   1            -54      53                Points:         108
 PW_GRID|   Bounds   2            -54      53                Points:         108
 PW_GRID|   Bounds   3            -54      53                Points:         108
 PW_GRID| Volume element (a.u.^3)  0.1025E-01     Volume (a.u.^3)     12909.5421
 PW_GRID| Grid span                                                    FULLSPACE

 PW_GRID| Information for grid number                                          2
 PW_GRID| Cutoff [a.u.]                                                     33.3
 PW_GRID| spherical cutoff:                                                   NO
 PW_GRID|   Bounds   1            -32      31                Points:          64
 PW_GRID|   Bounds   2            -32      31                Points:          64
 PW_GRID|   Bounds   3            -32      31                Points:          64
 PW_GRID| Volume element (a.u.^3)  0.4925E-01     Volume (a.u.^3)     12909.5421
 PW_GRID| Grid span                                                    FULLSPACE

 PW_GRID| Information for grid number                                          3
 PW_GRID| Cutoff [a.u.]                                                     11.1
 PW_GRID| spherical cutoff:                                                   NO
 PW_GRID|   Bounds   1            -18      17                Points:          36
 PW_GRID|   Bounds   2            -18      17                Points:          36
 PW_GRID|   Bounds   3            -18      17                Points:          36
 PW_GRID| Volume element (a.u.^3)  0.2767         Volume (a.u.^3)     12909.5421
 PW_GRID| Grid span                                                    FULLSPACE

 PW_GRID| Information for grid number                                          4
 PW_GRID| Cutoff [a.u.]                                                      3.7
 PW_GRID| spherical cutoff:                                                   NO
 PW_GRID|   Bounds   1            -12      11                Points:          24
 PW_GRID|   Bounds   2            -12      11                Points:          24
 PW_GRID|   Bounds   3            -12      11                Points:          24
 PW_GRID| Volume element (a.u.^3)  0.9338         Volume (a.u.^3)     12909.5421
 PW_GRID| Grid span                                                    FULLSPACE

 POISSON| Solver                                                        PERIODIC
 POISSON| Periodicity                                                        XYZ

 RS_GRID| Information for grid number                                          1
 RS_GRID|   Bounds   1            -54      53                Points:         108
 RS_GRID|   Bounds   2            -54      53                Points:         108
 RS_GRID|   Bounds   3            -54      53                Points:         108

 RS_GRID| Information for grid number                                          2
 RS_GRID|   Bounds   1            -32      31                Points:          64
 RS_GRID|   Bounds   2            -32      31                Points:          64
 RS_GRID|   Bounds   3            -32      31                Points:          64

 RS_GRID| Information for grid number                                          3
 RS_GRID|   Bounds   1            -18      17                Points:          36
 RS_GRID|   Bounds   2            -18      17                Points:          36
 RS_GRID|   Bounds   3            -18      17                Points:          36

 RS_GRID| Information for grid number                                          4
 RS_GRID|   Bounds   1            -12      11                Points:          24
 RS_GRID|   Bounds   2            -12      11                Points:          24
 RS_GRID|   Bounds   3            -12      11                Points:          24

 DISTRIBUTION OF THE PARTICLES (ROWS)
              Process row      Number of particles         Number of matrix rows
                        0                        3                            -1
                      Sum                        3                            -1

 DISTRIBUTION OF THE PARTICLES (COLUMNS)
              Process col      Number of particles      Number of matrix columns
                        0                        3                            -1
                      Sum                        3                            -1

 *******************************************************************************
 ***                     STARTING GEOMETRY OPTIMIZATION                      ***
 ***                           CONJUGATE GRADIENTS                           ***
 *******************************************************************************

 DISTRIBUTION OF THE NEIGHBOR LISTS
              Total number of particle pairs:                                  6
              Total number of matrix elements:                               374
              Average number of particle pairs:                                6
              Maximum number of particle pairs:                                6
              Average number of matrix element:                              374
              Maximum number of matrix elements:                             374


 DISTRIBUTION OF THE OVERLAP MATRIX
              Number  of non-zero blocks:                                      6
              Percentage non-zero blocks:                                 100.00
              Average number of blocks per CPU:                                6
              Maximum number of blocks per CPU:                                6
              Average number of matrix elements per CPU:                     384
              Maximum number of matrix elements per CPU:                     384

 Number of electrons:                                                          8
 Number of occupied orbitals:                                                  4
 Number of molecular orbitals:                                                 4

 Number of orbital functions:                                                 23
 Number of independent orbital functions:                                     23

 Extrapolation method: initial_guess

 Atomic guess: The first density matrix is obtained in terms of atomic orbitals
               and electronic configurations assigned to each atomic kind

 Guess for atomic kind: O

 Electronic structure
    Total number of core electrons                                          2.00
    Total number of valence electrons                                       6.00
    Total number of electrons                                               8.00
    Multiplicity                                                   not specified
    S   [  2.00] 2.00
    P      4.00


 *******************************************************************************
                  Iteration          Convergence                     Energy [au]
 *******************************************************************************
                          1         1.68085                     -14.857481728656
                          2         2.15642                     -14.936142370053
                          3        0.890654E-01                 -15.701381433081
                          4        0.300038E-02                 -15.702655347039
                          5        0.124050E-02                 -15.702656532555
                          6        0.771851E-03                 -15.702656682204
                          7        0.254544E-04                 -15.702656776553
                          8        0.154783E-06                 -15.702656776662

 Energy components [Hartree]           Total Energy ::          -15.702656776662
                                        Band Energy ::           -2.982159100248
                                     Kinetic Energy ::           11.942300538966
                                   Potential Energy ::          -27.644957315628
                                      Virial (-V/T) ::            2.314877039430
                                        Core Energy ::          -26.240316547129
                                          XC Energy ::           -3.168822356033
                                     Coulomb Energy ::           13.706482126500
                       Total Pseudopotential Energy ::          -38.217120617695
                       Local Pseudopotential Energy ::          -39.522374145046
                    Nonlocal Pseudopotential Energy ::            1.305253527351
                                        Confinement ::            0.345035316001

 Orbital energies  State     L     Occupation   Energy[a.u.]          Energy[eV]

                       1     0          2.000      -0.854038          -23.239548

                       1     1          4.000      -0.318521           -8.667395


 Guess for atomic kind: H

 Electronic structure
    Total number of core electrons                                          0.00
    Total number of valence electrons                                       1.00
    Total number of electrons                                               1.00
    Multiplicity                                                   not specified
    S      1.00


 *******************************************************************************
                  Iteration          Convergence                     Energy [au]
 *******************************************************************************
                          1        0.316011E-02                  -0.422390558413
                          2        0.333152E-03                  -0.422399635530
                          3        0.114302E-06                  -0.422399737491

 Energy components [Hartree]           Total Energy ::           -0.422399737491
                                        Band Energy ::           -0.193019372217
                                     Kinetic Energy ::            0.475009752129
                                   Potential Energy ::           -0.897409489620
                                      Virial (-V/T) ::            1.889244348347
                                        Core Energy ::           -0.478923189740
                                          XC Energy ::           -0.248206713182
                                     Coulomb Energy ::            0.304730165431
                       Total Pseudopotential Energy ::           -0.971460622099
                       Local Pseudopotential Energy ::           -0.971460622099
                    Nonlocal Pseudopotential Energy ::            0.000000000000
                                        Confinement ::            0.175276802303

 Orbital energies  State     L     Occupation   Energy[a.u.]          Energy[eV]

                       1     0          1.000      -0.193019           -5.252324

 Re-scaling the density matrix to get the right number of electrons
                  # Electrons              Trace(P)               Scaling factor
                            8                 8.000                        1.000


 SCF WAVEFUNCTION OPTIMIZATION

  Step     Update method      Time    Convergence         Total energy    Change
  ------------------------------------------------------------------------------

  Trace(PS):                                    8.0000000000
  Electronic density on regular grids:         -8.0000012802       -0.0000012802
  Core density on regular grids:                7.9999999260       -0.0000000740
  Total charge density on r-space grids:       -0.0000013541
  Total charge density g-space grids:          -0.0000013541

     1 NoMix/Diag. 0.50E+00    0.3     1.14126074       -17.0091284306 -1.70E+01

  Trace(PS):                                    8.0000000000
  Electronic density on regular grids:         -8.0000016413       -0.0000016413
  Core density on regular grids:                7.9999999260       -0.0000000740
  Total charge density on r-space grids:       -0.0000017153
  Total charge density g-space grids:          -0.0000017153

     2 Pulay/Diag. 0.50E+00    0.6     0.37692421       -15.9319529123  1.08E+00

  Trace(PS):                                    8.0000000000
  Electronic density on regular grids:         -8.0000016733       -0.0000016733
  Core density on regular grids:                7.9999999260       -0.0000000740
  Total charge density on r-space grids:       -0.0000017473
  Total charge density g-space grids:          -0.0000017473

     3 Pulay/Diag. 0.50E+00    0.6     0.08104039       -17.4315722690 -1.50E+00

  Trace(PS):                                    8.0000000000
  Electronic density on regular grids:         -8.0000016740       -0.0000016740
  Core density on regular grids:                7.9999999260       -0.0000000740
  Total charge density on r-space grids:       -0.0000017479
  Total charge density g-space grids:          -0.0000017479

     4 Pulay/Diag. 0.50E+00    0.5     0.01022197       -17.1557819144  2.76E-01

  Trace(PS):                                    8.0000000000
  Electronic density on regular grids:         -8.0000016706       -0.0000016706
  Core density on regular grids:                7.9999999260       -0.0000000740
  Total charge density on r-space grids:       -0.0000017445
  Total charge density g-space grids:          -0.0000017445

     5 Pulay/Diag. 0.50E+00    0.6     0.00392885       -17.1916748347 -3.59E-02

  Trace(PS):                                    8.0000000000
  Electronic density on regular grids:         -8.0000016693       -0.0000016693
  Core density on regular grids:                7.9999999260       -0.0000000740
  Total charge density on r-space grids:       -0.0000017433
  Total charge density g-space grids:          -0.0000017433

     6 Pulay/Diag. 0.50E+00    0.6     0.00130980       -17.1693054239  2.24E-02

  Trace(PS):                                    8.0000000000
  Electronic density on regular grids:         -8.0000016693       -0.0000016693
  Core density on regular grids:                7.9999999260       -0.0000000740
  Total charge density on r-space grids:       -0.0000017432
  Total charge density g-space grids:          -0.0000017432

     7 Pulay/Diag. 0.50E+00    0.5     0.00059051       -17.1649261163  4.38E-03

  Trace(PS):                                    8.0000000000
  Electronic density on regular grids:         -8.0000016693       -0.0000016693
  Core density on regular grids:                7.9999999260       -0.0000000740
  Total charge density on r-space grids:       -0.0000017432
  Total charge density g-space grids:          -0.0000017432

     8 Pulay/Diag. 0.50E+00    0.5     0.00056162       -17.1645402028  3.86E-04

  Trace(PS):                                    8.0000000000
  Electronic density on regular grids:         -8.0000016694       -0.0000016694
  Core density on regular grids:                7.9999999260       -0.0000000740
  Total charge density on r-space grids:       -0.0000017433
  Total charge density g-space grids:          -0.0000017433

     9 Pulay/Diag. 0.50E+00    0.5     0.00020889       -17.1637669166  7.73E-04

  Trace(PS):                                    8.0000000000
  Electronic density on regular grids:         -8.0000016693       -0.0000016693
  Core density on regular grids:                7.9999999260       -0.0000000740
  Total charge density on r-space grids:       -0.0000017433
  Total charge density g-space grids:          -0.0000017433

    10 Pulay/Diag. 0.50E+00    0.5     0.00008745       -17.1638478825 -8.10E-05

  Trace(PS):                                    8.0000000000
  Electronic density on regular grids:         -8.0000016694       -0.0000016694
  Core density on regular grids:                7.9999999260       -0.0000000740
  Total charge density on r-space grids:       -0.0000017433
  Total charge density g-space grids:          -0.0000017433

    11 Pulay/Diag. 0.50E+00    0.5     0.00003405       -17.1636663285  1.82E-04

  Trace(PS):                                    8.0000000000
  Electronic density on regular grids:         -8.0000016694       -0.0000016694
  Core density on regular grids:                7.9999999260       -0.0000000740
  Total charge density on r-space grids:       -0.0000017433
  Total charge density g-space grids:          -0.0000017433

    12 Pulay/Diag. 0.50E+00    0.5     0.00001742       -17.1637269776 -6.06E-05

  Trace(PS):                                    8.0000000000
  Electronic density on regular grids:         -8.0000016694       -0.0000016694
  Core density on regular grids:                7.9999999260       -0.0000000740
  Total charge density on r-space grids:       -0.0000017433
  Total charge density g-space grids:          -0.0000017433

    13 Pulay/Diag. 0.50E+00    0.5     0.00000474       -17.1636724752  5.45E-05

  *** SCF run converged in    13 steps ***


  Electronic density on regular grids:         -8.0000016694       -0.0000016694
  Core density on regular grids:                7.9999999260       -0.0000000740
  Total charge density on r-space grids:       -0.0000017433
  Total charge density g-space grids:          -0.0000017433

  Overlap energy of the core charge distribution:               0.00000008790619
  Self energy of the core charge distribution:                -43.83289054591484
  Core Hamiltonian energy:                                     12.88082901797401
  Hartree energy:                                              17.93243606773645
  Exchange-correlation energy:                                 -4.14404710293827

  Total energy:                                               -17.16367247523646


 MULLIKEN POPULATION ANALYSIS

 #  Atom  Element  Kind  Atomic population                Net charge
       1     O        1          6.624692                 -0.624692
       2     H        2          0.687615                  0.312385
       3     H        2          0.687693                  0.312307
 # Total charge                  8.000000                 -0.000000


 !-----------------------------------------------------------------------------!
                           Hirschfeld Charges

  #Atom  Element  Kind  Ref Charge     Population                     Net charge
      1       O      1       6.000          6.550                         -0.550
      2       H      2       1.000          0.725                          0.275
      3       H      2       1.000          0.725                          0.275

  Total Charge                                                             0.000
 !-----------------------------------------------------------------------------!

  Trace(PS):                                    8.0000000000
  Electronic density on regular grids:         -8.0000016694       -0.0000016694
  Core density on regular grids:                7.9999999260       -0.0000000740
  Total charge density on r-space grids:       -0.0000017433
  Total charge density g-space grids:          -0.0000017433


 ENERGY| Total FORCE_EVAL ( QS ) energy (a.u.):              -17.163667082526786


 --------  Informations at step =     0 ------------
  Optimization Method        =                   SD
  Total Energy               =       -17.1636670825
  Used time                  =                7.900
 ---------------------------------------------------

 --------------------------
 OPTIMIZATION STEP:      1
 --------------------------

 DISTRIBUTION OF THE NEIGHBOR LISTS
              Total number of particle pairs:                                  6
              Total number of matrix elements:                               374
              Average number of particle pairs:                                6
              Maximum number of particle pairs:                                6
              Average number of matrix element:                              374
              Maximum number of matrix elements:                             374


 DISTRIBUTION OF THE OVERLAP MATRIX
              Number  of non-zero blocks:                                      6
              Percentage non-zero blocks:                                 100.00
              Average number of blocks per CPU:                                6
              Maximum number of blocks per CPU:                                6
              Average number of matrix elements per CPU:                     384
              Maximum number of matrix elements per CPU:                     384

 Number of electrons:                                                          8
 Number of occupied orbitals:                                                  4
 Number of molecular orbitals:                                                 4

 Number of orbital functions:                                                 23
 Number of independent orbital functions:                                     23

 Parameters for the always stable predictor-corrector (ASPC) method:

  ASPC order: 0

  B(1) =   1.000000

 Extrapolation method: ASPC


 SCF WAVEFUNCTION OPTIMIZATION

  Step     Update method      Time    Convergence         Total energy    Change
  ------------------------------------------------------------------------------

  Trace(PS):                                    8.0000000000
  Electronic density on regular grids:         -8.0000016694       -0.0000016694
  Core density on regular grids:                7.9999999260       -0.0000000740
  Total charge density on r-space grids:       -0.0000017433
  Total charge density g-space grids:          -0.0000017433

     1 Pulay/Diag. 0.50E+00    0.2     0.00000319       -17.1636670825 -1.72E+01

  *** SCF run converged in     1 steps ***


  Electronic density on regular grids:         -8.0000016694       -0.0000016694
  Core density on regular grids:                7.9999999260       -0.0000000740
  Total charge density on r-space grids:       -0.0000017433
  Total charge density g-space grids:          -0.0000017433

  Overlap energy of the core charge distribution:               0.00000008790619
  Self energy of the core charge distribution:                -43.83289054591484
  Core Hamiltonian energy:                                     12.88083641142988
  Hartree energy:                                              17.93243528069200
  Exchange-correlation energy:                                 -4.14404831664001

  Total energy:                                               -17.16366708252678


 MULLIKEN POPULATION ANALYSIS

 #  Atom  Element  Kind  Atomic population                Net charge
       1     O        1          6.624686                 -0.624686
       2     H        2          0.687618                  0.312382
       3     H        2          0.687696                  0.312304
 # Total charge                  8.000000                 -0.000000


 !-----------------------------------------------------------------------------!
                           Hirschfeld Charges

  #Atom  Element  Kind  Ref Charge     Population                     Net charge
      1       O      1       6.000          6.550                         -0.550
      2       H      2       1.000          0.725                          0.275
      3       H      2       1.000          0.725                          0.275

  Total Charge                                                             0.000
 !-----------------------------------------------------------------------------!

 ENERGY| Total FORCE_EVAL ( QS ) energy (a.u.):              -17.163667082526779


 DISTRIBUTION OF THE NEIGHBOR LISTS
              Total number of particle pairs:                                  6
              Total number of matrix elements:                               374
              Average number of particle pairs:                                6
              Maximum number of particle pairs:                                6
              Average number of matrix element:                              374
              Maximum number of matrix elements:                             374


 DISTRIBUTION OF THE OVERLAP MATRIX
              Number  of non-zero blocks:                                      6
              Percentage non-zero blocks:                                 100.00
              Average number of blocks per CPU:                                6
              Maximum number of blocks per CPU:                                6
              Average number of matrix elements per CPU:                     384
              Maximum number of matrix elements per CPU:                     384

 Number of electrons:                                                          8
 Number of occupied orbitals:                                                  4
 Number of molecular orbitals:                                                 4

 Number of orbital functions:                                                 23
 Number of independent orbital functions:                                     23

 Parameters for the always stable predictor-corrector (ASPC) method:

  ASPC order: 0

  B(1) =   2.000000
  B(2) =  -1.000000

 Extrapolation method: ASPC


 SCF WAVEFUNCTION OPTIMIZATION

  Step     Update method      Time    Convergence         Total energy    Change
  ------------------------------------------------------------------------------

  Trace(PS):                                    8.0000000000
  Electronic density on regular grids:         -8.0000016374       -0.0000016374
  Core density on regular grids:                7.9999997971       -0.0000002029
  Total charge density on r-space grids:       -0.0000018403
  Total charge density g-space grids:          -0.0000018403

     1 Pulay/Diag. 0.50E+00    0.3     0.09314893       -17.1596411102 -1.72E+01

  Trace(PS):                                    8.0000000000
  Electronic density on regular grids:         -8.0000016240       -0.0000016240
  Core density on regular grids:                7.9999997971       -0.0000002029
  Total charge density on r-space grids:       -0.0000018269
  Total charge density g-space grids:          -0.0000018269

     2 Pulay/Diag. 0.50E+00    0.5     0.05242231       -17.3364934962 -1.77E-01

  Trace(PS):                                    8.0000000000
  Electronic density on regular grids:         -8.0000016490       -0.0000016490
  Core density on regular grids:                7.9999997971       -0.0000002029
  Total charge density on r-space grids:       -0.0000018519
  Total charge density g-space grids:          -0.0000018519

     3 Pulay/Diag. 0.50E+00    0.5     0.01721066       -17.1071065770  2.29E-01

  Trace(PS):                                    8.0000000000
  Electronic density on regular grids:         -8.0000016487       -0.0000016487
  Core density on regular grids:                7.9999997971       -0.0000002029
  Total charge density on r-space grids:       -0.0000018516
  Total charge density g-space grids:          -0.0000018516

     4 Pulay/Diag. 0.50E+00    0.5     0.00188574       -17.1639028607 -5.68E-02

  Trace(PS):                                    8.0000000000
  Electronic density on regular grids:         -8.0000016488       -0.0000016488
  Core density on regular grids:                7.9999997971       -0.0000002029
  Total charge density on r-space grids:       -0.0000018517
  Total charge density g-space grids:          -0.0000018517

     5 Pulay/Diag. 0.50E+00    0.5     0.00038991       -17.1591802039  4.72E-03

  Trace(PS):                                    8.0000000000
  Electronic density on regular grids:         -8.0000016489       -0.0000016489
  Core density on regular grids:                7.9999997971       -0.0000002029
  Total charge density on r-space grids:       -0.0000018518
  Total charge density g-space grids:          -0.0000018518

     6 Pulay/Diag. 0.50E+00    0.5     0.00015544       -17.1608426971 -1.66E-03

  Trace(PS):                                    8.0000000000
  Electronic density on regular grids:         -8.0000016489       -0.0000016489
  Core density on regular grids:                7.9999997971       -0.0000002029
  Total charge density on r-space grids:       -0.0000018518
  Total charge density g-space grids:          -0.0000018518

     7 Pulay/Diag. 0.50E+00    0.6     0.00004638       -17.1613983340 -5.56E-04

  Trace(PS):                                    8.0000000000
  Electronic density on regular grids:         -8.0000016489       -0.0000016489
  Core density on regular grids:                7.9999997971       -0.0000002029
  Total charge density on r-space grids:       -0.0000018518
  Total charge density g-space grids:          -0.0000018518

     8 Pulay/Diag. 0.50E+00    0.6     0.00003099       -17.1614614029 -6.31E-05

  Trace(PS):                                    8.0000000000
  Electronic density on regular grids:         -8.0000016489       -0.0000016489
  Core density on regular grids:                7.9999997971       -0.0000002029
  Total charge density on r-space grids:       -0.0000018518
  Total charge density g-space grids:          -0.0000018518

     9 Pulay/Diag. 0.50E+00    0.6     0.00001176       -17.1614750194 -1.36E-05

  Trace(PS):                                    8.0000000000
  Electronic density on regular grids:         -8.0000016489       -0.0000016489
  Core density on regular grids:                7.9999997971       -0.0000002029
  Total charge density on r-space grids:       -0.0000018518
  Total charge density g-space grids:          -0.0000018518

    10 Pulay/Diag. 0.50E+00    0.6     0.00000549       -17.1614738322  1.19E-06

  *** SCF run converged in    10 steps ***


  Electronic density on regular grids:         -8.0000016489       -0.0000016489
  Core density on regular grids:                7.9999997971       -0.0000002029
  Total charge density on r-space grids:       -0.0000018518
  Total charge density g-space grids:          -0.0000018518

  Overlap energy of the core charge distribution:               0.00000000989725
  Self energy of the core charge distribution:                -43.83289054591484
  Core Hamiltonian energy:                                     12.69954411811349
  Hartree energy:                                              18.06385524344191
  Exchange-correlation energy:                                 -4.09198265770861

  Total energy:                                               -17.16147383217080


 MULLIKEN POPULATION ANALYSIS

 #  Atom  Element  Kind  Atomic population                Net charge
       1     O        1          6.628135                 -0.628135
       2     H        2          0.685789                  0.314211
       3     H        2          0.686076                  0.313924
 # Total charge                  8.000000                 -0.000000


 !-----------------------------------------------------------------------------!
                           Hirschfeld Charges

  #Atom  Element  Kind  Ref Charge     Population                     Net charge
      1       O      1       6.000          6.563                         -0.563
      2       H      2       1.000          0.719                          0.281
      3       H      2       1.000          0.718                          0.282

  Total Charge                                                             0.000
 !-----------------------------------------------------------------------------!

 ENERGY| Total FORCE_EVAL ( QS ) energy (a.u.):              -17.161473832170799


 DISTRIBUTION OF THE NEIGHBOR LISTS
              Total number of particle pairs:                                  6
              Total number of matrix elements:                               374
              Average number of particle pairs:                                6
              Maximum number of particle pairs:                                6
              Average number of matrix element:                              374
              Maximum number of matrix elements:                             374


 DISTRIBUTION OF THE OVERLAP MATRIX
              Number  of non-zero blocks:                                      6
              Percentage non-zero blocks:                                 100.00
              Average number of blocks per CPU:                                6
              Maximum number of blocks per CPU:                                6
              Average number of matrix elements per CPU:                     384
              Maximum number of matrix elements per CPU:                     384

 Number of electrons:                                                          8
 Number of occupied orbitals:                                                  4
 Number of molecular orbitals:                                                 4

 Number of orbital functions:                                                 23
 Number of independent orbital functions:                                     23

 Parameters for the always stable predictor-corrector (ASPC) method:

  ASPC order: 1

  B(1) =   2.500000
  B(2) =  -2.000000
  B(3) =   0.500000

 Extrapolation method: ASPC


 SCF WAVEFUNCTION OPTIMIZATION

  Step     Update method      Time    Convergence         Total energy    Change
  ------------------------------------------------------------------------------

  Trace(PS):                                    8.0000000000
  Electronic density on regular grids:         -8.0000016831       -0.0000016831
  Core density on regular grids:                7.9999997218       -0.0000002782
  Total charge density on r-space grids:       -0.0000019613
  Total charge density g-space grids:          -0.0000019613

     1 Pulay/Diag. 0.50E+00    0.3     0.35670575       -17.0997779604 -1.71E+01

  Trace(PS):                                    8.0000000000
  Electronic density on regular grids:         -8.0000017468       -0.0000017468
  Core density on regular grids:                7.9999997218       -0.0000002782
  Total charge density on r-space grids:       -0.0000020250
  Total charge density g-space grids:          -0.0000020250

     2 Pulay/Diag. 0.50E+00    0.5     0.17256417       -16.4457222936  6.54E-01

  Trace(PS):                                    8.0000000000
  Electronic density on regular grids:         -8.0000016454       -0.0000016454
  Core density on regular grids:                7.9999997218       -0.0000002782
  Total charge density on r-space grids:       -0.0000019236
  Total charge density g-space grids:          -0.0000019236

     3 Pulay/Diag. 0.50E+00    0.5     0.05554014       -17.2035105556 -7.58E-01

  Trace(PS):                                    8.0000000000
  Electronic density on regular grids:         -8.0000016515       -0.0000016515
  Core density on regular grids:                7.9999997218       -0.0000002782
  Total charge density on r-space grids:       -0.0000019297
  Total charge density g-space grids:          -0.0000019297

     4 Pulay/Diag. 0.50E+00    0.5     0.01055538       -17.1068669901  9.66E-02

  Trace(PS):                                    8.0000000000
  Electronic density on regular grids:         -8.0000016510       -0.0000016510
  Core density on regular grids:                7.9999997218       -0.0000002782
  Total charge density on r-space grids:       -0.0000019292
  Total charge density g-space grids:          -0.0000019292

     5 Pulay/Diag. 0.50E+00    0.5     0.00166654       -17.1409680444 -3.41E-02

  Trace(PS):                                    8.0000000000
  Electronic density on regular grids:         -8.0000016503       -0.0000016503
  Core density on regular grids:                7.9999997218       -0.0000002782
  Total charge density on r-space grids:       -0.0000019285
  Total charge density g-space grids:          -0.0000019285

     6 Pulay/Diag. 0.50E+00    0.5     0.00065723       -17.1348781226  6.09E-03

  Trace(PS):                                    8.0000000000
  Electronic density on regular grids:         -8.0000016502       -0.0000016502
  Core density on regular grids:                7.9999997218       -0.0000002782
  Total charge density on r-space grids:       -0.0000019284
  Total charge density g-space grids:          -0.0000019284

     7 Pulay/Diag. 0.50E+00    0.5     0.00017923       -17.1331525275  1.73E-03

  Trace(PS):                                    8.0000000000
  Electronic density on regular grids:         -8.0000016501       -0.0000016501
  Core density on regular grids:                7.9999997218       -0.0000002782
  Total charge density on r-space grids:       -0.0000019283
  Total charge density g-space grids:          -0.0000019283

     8 Pulay/Diag. 0.50E+00    0.6     0.00016873       -17.1329573629  1.95E-04

  Trace(PS):                                    8.0000000000
  Electronic density on regular grids:         -8.0000016501       -0.0000016501
  Core density on regular grids:                7.9999997218       -0.0000002782
  Total charge density on r-space grids:       -0.0000019283
  Total charge density g-space grids:          -0.0000019283

     9 Pulay/Diag. 0.50E+00    0.6     0.00004880       -17.1328642651  9.31E-05

  Trace(PS):                                    8.0000000000
  Electronic density on regular grids:         -8.0000016501       -0.0000016501
  Core density on regular grids:                7.9999997218       -0.0000002782
  Total charge density on r-space grids:       -0.0000019283
  Total charge density g-space grids:          -0.0000019283

    10 Pulay/Diag. 0.50E+00    0.6     0.00002857       -17.1328976616 -3.34E-05

  Trace(PS):                                    8.0000000000
  Electronic density on regular grids:         -8.0000016501       -0.0000016501
  Core density on regular grids:                7.9999997218       -0.0000002782
  Total charge density on r-space grids:       -0.0000019283
  Total charge density g-space grids:          -0.0000019283

    11 Pulay/Diag. 0.50E+00    0.6     0.00000781       -17.1328740965  2.36E-05

  *** SCF run converged in    11 steps ***


  Electronic density on regular grids:         -8.0000016501       -0.0000016501
  Core density on regular grids:                7.9999997218       -0.0000002782
  Total charge density on r-space grids:       -0.0000019283
  Total charge density g-space grids:          -0.0000019283

  Overlap energy of the core charge distribution:               0.00000234899953
  Self energy of the core charge distribution:                -43.83289054591484
  Core Hamiltonian energy:                                     13.24448189418318
  Hartree energy:                                              17.69629833702024
  Exchange-correlation energy:                                 -4.24076613080539

  Total energy:                                               -17.13287409651727


 MULLIKEN POPULATION ANALYSIS

 #  Atom  Element  Kind  Atomic population                Net charge
       1     O        1          6.599210                 -0.599210
       2     H        2          0.700173                  0.299827
       3     H        2          0.700617                  0.299383
 # Total charge                  8.000000                  0.000000


 !-----------------------------------------------------------------------------!
                           Hirschfeld Charges

  #Atom  Element  Kind  Ref Charge     Population                     Net charge
      1       O      1       6.000          6.517                         -0.517
      2       H      2       1.000          0.741                          0.259
      3       H      2       1.000          0.742                          0.258

  Total Charge                                                             0.000
 !-----------------------------------------------------------------------------!

 ENERGY| Total FORCE_EVAL ( QS ) energy (a.u.):              -17.132874096517270


 *******************************************************************************
 ***                 MNBRACK - NUMBER OF ENERGY EVALUATIONS :       3        ***
 *******************************************************************************

 DISTRIBUTION OF THE NEIGHBOR LISTS
              Total number of particle pairs:                                  6
              Total number of matrix elements:                               374
              Average number of particle pairs:                                6
              Maximum number of particle pairs:                                6
              Average number of matrix element:                              374
              Maximum number of matrix elements:                             374


 DISTRIBUTION OF THE OVERLAP MATRIX
              Number  of non-zero blocks:                                      6
              Percentage non-zero blocks:                                 100.00
              Average number of blocks per CPU:                                6
              Maximum number of blocks per CPU:                                6
              Average number of matrix elements per CPU:                     384
              Maximum number of matrix elements per CPU:                     384

 Number of electrons:                                                          8
 Number of occupied orbitals:                                                  4
 Number of molecular orbitals:                                                 4

 Number of orbital functions:                                                 23
 Number of independent orbital functions:                                     23

 Parameters for the always stable predictor-corrector (ASPC) method:

  ASPC order: 2

  B(1) =   2.800000
  B(2) =  -2.800000
  B(3) =   1.200000
  B(4) =  -0.200000

 Extrapolation method: ASPC


 SCF WAVEFUNCTION OPTIMIZATION

  Step     Update method      Time    Convergence         Total energy    Change
  ------------------------------------------------------------------------------

  Trace(PS):                                    8.0000000000
  Electronic density on regular grids:         -8.0000016389       -0.0000016389
  Core density on regular grids:                7.9999999260       -0.0000000740
  Total charge density on r-space grids:       -0.0000017129
  Total charge density g-space grids:          -0.0000017129

     1 Pulay/Diag. 0.50E+00    0.2     0.81656101       -17.0612665052 -1.71E+01

  Trace(PS):                                    8.0000000000
  Electronic density on regular grids:         -8.0000015171       -0.0000015171
  Core density on regular grids:                7.9999999260       -0.0000000740
  Total charge density on r-space grids:       -0.0000015911
  Total charge density g-space grids:          -0.0000015911

     2 Pulay/Diag. 0.50E+00    0.5     0.32206409       -18.3378181460 -1.28E+00

  Trace(PS):                                    8.0000000000
  Electronic density on regular grids:         -8.0000016716       -0.0000016716
  Core density on regular grids:                7.9999999260       -0.0000000740
  Total charge density on r-space grids:       -0.0000017456
  Total charge density g-space grids:          -0.0000017456

     3 Pulay/Diag. 0.50E+00    0.5     0.10971166       -16.8855067378  1.45E+00

  Trace(PS):                                    8.0000000000
  Electronic density on regular grids:         -8.0000016679       -0.0000016679
  Core density on regular grids:                7.9999999260       -0.0000000740
  Total charge density on r-space grids:       -0.0000017419
  Total charge density g-space grids:          -0.0000017419

     4 Pulay/Diag. 0.50E+00    0.5     0.01798009       -17.2034938506 -3.18E-01

  Trace(PS):                                    8.0000000000
  Electronic density on regular grids:         -8.0000016686       -0.0000016686
  Core density on regular grids:                7.9999999260       -0.0000000740
  Total charge density on r-space grids:       -0.0000017425
  Total charge density g-space grids:          -0.0000017425

     5 Pulay/Diag. 0.50E+00    0.5     0.00242339       -17.1508777852  5.26E-02

  Trace(PS):                                    8.0000000000
  Electronic density on regular grids:         -8.0000016692       -0.0000016692
  Core density on regular grids:                7.9999999260       -0.0000000740
  Total charge density on r-space grids:       -0.0000017431
  Total charge density g-space grids:          -0.0000017431

     6 Pulay/Diag. 0.50E+00    0.6     0.00081669       -17.1607007064 -9.82E-03

  Trace(PS):                                    8.0000000000
  Electronic density on regular grids:         -8.0000016694       -0.0000016694
  Core density on regular grids:                7.9999999260       -0.0000000740
  Total charge density on r-space grids:       -0.0000017434
  Total charge density g-space grids:          -0.0000017434

     7 Pulay/Diag. 0.50E+00    0.5     0.00027040       -17.1633320812 -2.63E-03

  Trace(PS):                                    8.0000000000
  Electronic density on regular grids:         -8.0000016694       -0.0000016694
  Core density on regular grids:                7.9999999260       -0.0000000740
  Total charge density on r-space grids:       -0.0000017433
  Total charge density g-space grids:          -0.0000017433

     8 Pulay/Diag. 0.50E+00    0.5     0.00019397       -17.1636753049 -3.43E-04

  Trace(PS):                                    8.0000000000
  Electronic density on regular grids:         -8.0000016694       -0.0000016694
  Core density on regular grids:                7.9999999260       -0.0000000740
  Total charge density on r-space grids:       -0.0000017433
  Total charge density g-space grids:          -0.0000017433

     9 Pulay/Diag. 0.50E+00    0.5     0.00006461       -17.1637164178 -4.11E-05

  Trace(PS):                                    8.0000000000
  Electronic density on regular grids:         -8.0000016694       -0.0000016694
  Core density on regular grids:                7.9999999260       -0.0000000740
  Total charge density on r-space grids:       -0.0000017433
  Total charge density g-space grids:          -0.0000017433

    10 Pulay/Diag. 0.50E+00    0.5     0.00002902       -17.1636878620  2.86E-05

  Trace(PS):                                    8.0000000000
  Electronic density on regular grids:         -8.0000016694       -0.0000016694
  Core density on regular grids:                7.9999999260       -0.0000000740
  Total charge density on r-space grids:       -0.0000017433
  Total charge density g-space grids:          -0.0000017433

    11 Pulay/Diag. 0.50E+00    0.6     0.00001741       -17.1636771203  1.07E-05

  Trace(PS):                                    8.0000000000
  Electronic density on regular grids:         -8.0000016694       -0.0000016694
  Core density on regular grids:                7.9999999260       -0.0000000740
  Total charge density on r-space grids:       -0.0000017433
  Total charge density g-space grids:          -0.0000017433

    12 Pulay/Diag. 0.50E+00    0.6     0.00000536       -17.1636746497  2.47E-06

  *** SCF run converged in    12 steps ***


  Electronic density on regular grids:         -8.0000016694       -0.0000016694
  Core density on regular grids:                7.9999999260       -0.0000000740
  Total charge density on r-space grids:       -0.0000017433
[...]
  Electronic density on regular grids:         -8.0000016294       -0.0000016294
  Core density on regular grids:                7.9999992554       -0.0000007446
  Total charge density on r-space grids:       -0.0000023740
  Total charge density g-space grids:          -0.0000023740

     4 Pulay/Diag. 0.50E+00    0.5     0.00001528       -17.1645778057  1.09E-04

  Trace(PS):                                    8.0000000000
  Electronic density on regular grids:         -8.0000016294       -0.0000016294
  Core density on regular grids:                7.9999992554       -0.0000007446
  Total charge density on r-space grids:       -0.0000023740
  Total charge density g-space grids:          -0.0000023740

     5 Pulay/Diag. 0.50E+00    0.5     0.00000160       -17.1646260706 -4.83E-05

  *** SCF run converged in     5 steps ***


  Electronic density on regular grids:         -8.0000016294       -0.0000016294
  Core density on regular grids:                7.9999992554       -0.0000007446
  Total charge density on r-space grids:       -0.0000023740
  Total charge density g-space grids:          -0.0000023740

  Overlap energy of the core charge distribution:               0.00000004555605
  Self energy of the core charge distribution:                -43.83289054591484
  Core Hamiltonian energy:                                     12.82176933408556
  Hartree energy:                                              17.97394644419198
  Exchange-correlation energy:                                 -4.12745134851592

  Total energy:                                               -17.16462607059717


 MULLIKEN POPULATION ANALYSIS

 #  Atom  Element  Kind  Atomic population                Net charge
       1     O        1          6.626127                 -0.626127
       2     H        2          0.686789                  0.313211
       3     H        2          0.687084                  0.312916
 # Total charge                  8.000000                 -0.000000


 !-----------------------------------------------------------------------------!
                           Hirschfeld Charges

  #Atom  Element  Kind  Ref Charge     Population                     Net charge
      1       O      1       6.000          6.554                         -0.554
      2       H      2       1.000          0.723                          0.277
      3       H      2       1.000          0.723                          0.277

  Total Charge                                                             0.000
 !-----------------------------------------------------------------------------!

  Trace(PS):                                    8.0000000000
  Electronic density on regular grids:         -8.0000016294       -0.0000016294
  Core density on regular grids:                7.9999992554       -0.0000007446
  Total charge density on r-space grids:       -0.0000023740
  Total charge density g-space grids:          -0.0000023740


 ENERGY| Total FORCE_EVAL ( QS ) energy (a.u.):              -17.164620476603673


 *******************************************************************************
 ***                 BRENT   - NUMBER OF ENERGY EVALUATIONS :       4        ***
 *******************************************************************************

 --------  Informations at step =    11 ------------
  Optimization Method        =                   SD
  Total Energy               =       -17.1646204766
  Real energy change         =        -0.0000000529
  Decrease in energy         =                  YES
  Used time                  =               23.214

  Convergence check :
  Max. step size             =         0.0003393150
  Conv. limit for step size  =         0.0010000000
  Convergence in step size   =                  YES
  RMS step size              =         0.0001493298
  Conv. limit for RMS step   =         0.0010000000
  Convergence in RMS step    =                  YES
  Max. gradient              =         0.0001787448
  Conv. limit for gradients  =         0.0010000000
  Conv. in gradients         =                  YES
  RMS gradient               =         0.0000786642
  Conv. limit for RMS grad.  =         0.0010000000
  Conv. in RMS gradients     =                  YES
 ---------------------------------------------------

 *******************************************************************************
 ***                    GEOMETRY OPTIMIZATION COMPLETED                      ***
 *******************************************************************************

                    Reevaluating energy at the minimum

 DISTRIBUTION OF THE NEIGHBOR LISTS
              Total number of particle pairs:                                  6
              Total number of matrix elements:                               374
              Average number of particle pairs:                                6
              Maximum number of particle pairs:                                6
              Average number of matrix element:                              374
              Maximum number of matrix elements:                             374


 DISTRIBUTION OF THE OVERLAP MATRIX
              Number  of non-zero blocks:                                      6
              Percentage non-zero blocks:                                 100.00
              Average number of blocks per CPU:                                6
              Maximum number of blocks per CPU:                                6
              Average number of matrix elements per CPU:                     384
              Maximum number of matrix elements per CPU:                     384

 Number of electrons:                                                          8
 Number of occupied orbitals:                                                  4
 Number of molecular orbitals:                                                 4

 Number of orbital functions:                                                 23
 Number of independent orbital functions:                                     23

 Parameters for the always stable predictor-corrector (ASPC) method:

  ASPC order: 3

  B(1) =   3.000000
  B(2) =  -3.428571
  B(3) =   1.928571
  B(4) =  -0.571429
  B(5) =   0.071429

 Extrapolation method: ASPC


 SCF WAVEFUNCTION OPTIMIZATION

  Step     Update method      Time    Convergence         Total energy    Change
  ------------------------------------------------------------------------------

  Trace(PS):                                    8.0000000000
  Electronic density on regular grids:         -8.0000016293       -0.0000016293
  Core density on regular grids:                7.9999992554       -0.0000007446
  Total charge density on r-space grids:       -0.0000023739
  Total charge density g-space grids:          -0.0000023739

     1 Pulay/Diag. 0.50E+00    0.3     0.00005615       -17.1646204762 -1.72E+01

  Trace(PS):                                    8.0000000000
  Electronic density on regular grids:         -8.0000016293       -0.0000016293
  Core density on regular grids:                7.9999992554       -0.0000007446
  Total charge density on r-space grids:       -0.0000023739
  Total charge density g-space grids:          -0.0000023739

     2 Pulay/Diag. 0.50E+00    0.5     0.00000563       -17.1646347711 -1.43E-05

  *** SCF run converged in     2 steps ***


  Electronic density on regular grids:         -8.0000016293       -0.0000016293
  Core density on regular grids:                7.9999992554       -0.0000007446
  Total charge density on r-space grids:       -0.0000023739
  Total charge density g-space grids:          -0.0000023739

  Overlap energy of the core charge distribution:               0.00000004555422
  Self energy of the core charge distribution:                -43.83289054591484
  Core Hamiltonian energy:                                     12.82175605771009
  Hartree energy:                                              17.97395116120773
  Exchange-correlation energy:                                 -4.12745148966159

  Total energy:                                               -17.16463477110439


 MULLIKEN POPULATION ANALYSIS

 #  Atom  Element  Kind  Atomic population                Net charge
       1     O        1          6.626128                 -0.626128
       2     H        2          0.686790                  0.313210
       3     H        2          0.687082                  0.312918
 # Total charge                  8.000000                  0.000000


 !-----------------------------------------------------------------------------!
                           Hirschfeld Charges

  #Atom  Element  Kind  Ref Charge     Population                     Net charge
      1       O      1       6.000          6.554                         -0.554
      2       H      2       1.000          0.723                          0.277
      3       H      2       1.000          0.723                          0.277

  Total Charge                                                             0.000
 !-----------------------------------------------------------------------------!

 ENERGY| Total FORCE_EVAL ( QS ) energy (a.u.):              -17.164634771104389


 -------------------------------------------------------------------------------
 -                                                                             -
 -                                DBCSR STATISTICS                             -
 -                                                                             -
 -------------------------------------------------------------------------------
 COUNTER                                      CPU                  ACC      ACC%
 number of processed stacks                  4732                    0       0.0
 matmuls inhomo. stacks                         0                    0       0.0
 matmuls total                               8268                    0       0.0
 flops   5 x    4 x    5                   312000                    0       0.0
 flops  13 x    4 x    5                   405600                    0       0.0
 flops   5 x    4 x   13                   405600                    0       0.0
 flops  13 x    5 x    4                   412360                    0       0.0
 flops   5 x   13 x    4                   412360                    0       0.0
 flops   5 x    5 x    4                   475800                    0       0.0
 flops  13 x    4 x   13                   527280                    0       0.0
 flops  13 x   13 x    4                  1072136                    0       0.0
 flops total                              4023136                    0       0.0
 marketing flops                          5006456
 -------------------------------------------------------------------------------

 -------------------------------------------------------------------------------
 ----                             MULTIGRID INFO                            ----
 -------------------------------------------------------------------------------
 count for grid        1:          10394          cutoff [a.u.]          100.00
 count for grid        2:           5544          cutoff [a.u.]           33.33
 count for grid        3:           1678          cutoff [a.u.]           11.11
 count for grid        4:             48          cutoff [a.u.]            3.70
 total gridlevel count  :          17664

 -------------------------------------------------------------------------------
 -                                                                             -
 -                         MESSAGE PASSING PERFORMANCE                         -
 -                                                                             -
 -------------------------------------------------------------------------------

 ROUTINE             CALLS  TOT TIME [s]  AVE VOLUME [Bytes]  PERFORMANCE [MB/s]
 MP_Group                5         0.000
 MP_Bcast              699         0.001                  4.                4.24
 MP_Allreduce        10245         0.013                 17.               14.07
 MP_Sync                 4         0.000
 MP_Alltoall         18935         0.012                775.             1263.04
 MP_Wait             28392         0.007
 MP_ISend             9464         0.010               1392.             1272.04
 MP_IRecv             9464         0.005               1392.             2757.46
 MP_Memory           26832         0.011
 -------------------------------------------------------------------------------


 -------------------------------------------------------------------------------
 -                                                                             -
 -                           R E F E R E N C E S                               -
 -                                                                             -
 -------------------------------------------------------------------------------
 
 CP2K version 2.6.2, the CP2K developers group (2015).
 CP2K is freely available from http://www.cp2k.org/ .

 Borstnik, U; VandeVondele, J; Weber, V; Hutter, J. 
 PARALLEL COMPUTING, 40 (5-6), 47-58 (2014). 
 Sparse matrix multiplication: The distributed block-compressed sparse
 row library.
 http://dx.doi.org/10.1016/j.parco.2014.03.012


 Hutter, J; Iannuzzi, M; Schiffmann, F; VandeVondele, J. 
 WILEY INTERDISCIPLINARY REVIEWS-COMPUTATIONAL MOLECULAR SCIENCE, 4 (1), 15-25 (2014). 
 CP2K: atomistic simulations of condensed matter systems.
 http://dx.doi.org/10.1002/wcms.1159


 Krack, M. 
 THEORETICAL CHEMISTRY ACCOUNTS, 114 (1-3), 145-152 (2005). 
 Pseudopotentials for H to Kr optimized for gradient-corrected
 exchange-correlation functionals.
 http://dx.doi.org/10.1007/s00214-005-0655-y


 VandeVondele, J; Krack, M; Mohamed, F; Parrinello, M; Chassaing, T;
 Hutter, J. COMPUTER PHYSICS COMMUNICATIONS, 167 (2), 103-128 (2005). 
 QUICKSTEP: Fast and accurate density functional calculations using a
 mixed Gaussian and plane waves approach.
 http://dx.doi.org/10.1016/j.cpc.2004.12.014


 Frigo, M; Johnson, SG. 
 PROCEEDINGS OF THE IEEE, 93 (2), 216-231 (2005). 
 The design and implementation of FFTW3.
 http://dx.doi.org/10.1109/JPROC.2004.840301


 Kolafa, J. 
 JOURNAL OF COMPUTATIONAL CHEMISTRY, 25 (3), 335-342 (2004). 
 Time-reversible always stable predictor-corrector method for molecular dynamics of polarizable molecules.
 http://dx.doi.org/10.1002/jcc.10385


 Hartwigsen, C; Goedecker, S; Hutter, J. 
 PHYSICAL REVIEW B, 58 (7), 3641-3662 (1998). 
 Relativistic separable dual-space Gaussian pseudopotentials from H to Rn.
 http://dx.doi.org/10.1103/PhysRevB.58.3641


 Lippert, G; Hutter, J; Parrinello, M. 
 MOLECULAR PHYSICS, 92 (3), 477-487 (1997). 
 A hybrid Gaussian and plane wave density functional scheme.
 http://dx.doi.org/10.1080/002689797170220


 Goedecker, S; Teter, M; Hutter, J. 
 PHYSICAL REVIEW B, 54 (3), 1703-1710 (1996). 
 Separable dual-space Gaussian pseudopotentials.
 http://dx.doi.org/10.1103/PhysRevB.54.1703


 -------------------------------------------------------------------------------
 -                                                                             -
 -                                T I M I N G                                  -
 -                                                                             -
 -------------------------------------------------------------------------------
 SUBROUTINE                       CALLS  ASD         SELF TIME        TOTAL TIME
                                MAXIMUM       AVERAGE  MAXIMUM  AVERAGE  MAXIMUM
 CP2K                                 1  1.0    0.006    0.006  381.700  381.700
 cp_geo_opt                           1  2.0    0.000    0.000  381.216  381.216
 geoopt_cg                            1  3.0    0.000    0.000  381.216  381.216
 cp_cg_main                           1  4.0    0.001    0.001  381.216  381.216
 cp_eval_at                         101  8.5    0.006    0.006  381.204  381.204
 qs_energies_scf                    101 10.1    0.003    0.003  365.936  365.936
 cg_linmin                           11  5.0    0.000    0.000  338.994  338.994
 linmin_gold                         11  6.0    0.000    0.000  338.994  338.994
 scf_env_do_scf                     101 11.1    0.006    0.006  322.052  322.052
 scf_env_do_scf_inner_loop          630 12.2    0.054    0.054  322.046  322.046
 qs_forces                           63  9.3    0.003    0.003  257.125  257.125
 fft_wrap_pw1pw2                   7750 17.1    0.097    0.097  246.838  246.838
 fft_wrap_pw1pw2_100               3478 17.4   10.389   10.389  230.594  230.594
 cg_dbrent                           11  7.0    0.000    0.000  216.298  216.298
 cg_deval1d                          52  8.0    0.000    0.000  216.297  216.297
 rebuild_ks_matrix                  693 14.0    0.001    0.001  168.958  168.958
 qs_ks_build_kohn_sham_matrix       693 15.0    0.097    0.097  168.957  168.957
 fft3d_s                           7751 19.1  166.012  166.012  166.049  166.049
 qs_ks_update_qs_env                630 13.2    0.009    0.009  153.775  153.775
 cg_mnbrak                           11  7.0    0.000    0.000  122.696  122.696
 cg_eval1d                           37  8.0    0.000    0.000  122.696  122.696
 qs_rho_update_rho                  731 13.4    0.004    0.004  121.111  121.111
 calculate_rho_elec                 731 14.4    6.165    6.165  121.106  121.106
 density_rs2pw                      731 15.4    0.022    0.022  113.857  113.857
 sum_up_and_integrate               693 16.0    1.408    1.408   63.575   63.575
 gspace_mixing                      529 13.3    3.327    3.327   62.932   62.932
 integrate_v_rspace                 693 17.0    2.553    2.553   62.166   62.166
 potential_pw2rs                    693 18.0    0.234    0.234   59.549   59.549
 qs_vxc_create                      693 16.0    0.010    0.010   38.222   38.222
 xc_vxc_pw_create                   693 17.0    4.363    4.363   38.212   38.212
 pw_scatter_s                      4032 19.4   36.123   36.123   36.123   36.123
 init_scf_run                       101 11.1    0.005    0.005   33.979   33.979
 scf_env_initial_rho_setup          101 12.1    0.002    0.002   33.958   33.958
 xc_rho_set_and_dset_create         693 18.0    0.016    0.016   33.847   33.847
 pw_gather_s                       3718 18.8   33.134   33.134   33.134   33.134
 xc_functional_eval                 693 19.0   32.441   32.441   32.441   32.441
 pulay_mixing                       529 14.3   25.891   25.891   25.904   25.904
 mixing_init                        101 13.1   17.117   17.117   17.117   17.117
 wfi_extrapolate                    101 13.1    0.008    0.008   16.623   16.623
 pw_poisson_solve                   693 16.0   11.041   11.041   16.383   16.383
 qs_ks_update_qs_env_forces          63 10.3    0.000    0.000   15.208   15.208
 fft_wrap_pw1pw2_40                1424 18.6    0.881    0.881   13.280   13.280
 pw_copy                           5544 18.1   11.605   11.605   11.605   11.605
 qs_energies_init_hamiltonians      101 11.1    0.001    0.001    8.086    8.086
 qs_env_update_s_mstruct            101 12.1    0.001    0.001    8.015    8.015
 calculate_rho_core                 101 13.1    0.649    0.649    7.979    7.979
 -------------------------------------------------------------------------------

  **** **** ******  **  PROGRAM ENDED AT                 2016-05-26 17:18:30.823
 ***** ** ***  *** **   PROGRAM RAN ON                       lauri-Lenovo-Z50-70
 **    ****   ******    PROGRAM RAN BY                                     lauri
 ***** **    ** ** **   PROGRAM PROCESS ID                                 12831
  **** **  *******  **  PROGRAM STOPPED IN /home/lauri/Dropbox/nomad-dev/nomad-l
                                           ab-base/parsers/cp2k/test/unittests/c
                                           p2k_2.6.2/geo_opt/filename
