      55
 i =       77, E =     -7114.1182722132
 Co        12.4953435194       12.4976045260       12.4972645075
 Co        12.4995017712       13.7629673093       14.4940522726
 Co        12.4962948623       13.7708667252       10.5113573947
 Co        12.4991066619       11.2180148104       14.4507115858
 Co        12.4825083955       11.2230314869       10.5372766808
 Co        13.7758774025       14.4498329739       12.5044955917
 Co        11.2356723803       14.4884632901       12.4980611015
 Co        13.7675251081       10.5063758462       12.4972721925
 Co        11.1717384003       10.5391832480       12.4933847104
 Co        14.4583192208       12.4982993735       13.7861749762
 Co        14.4870810591       12.4988263708       11.2270778925
 Co        10.5087594179       12.5067038890       13.7699993087
 Co        10.5283976968       12.5086701529       11.2195287295
 Pt         8.2741570008       12.5388456936        9.8482708271
 Pt        12.4817929659       15.1015077619       16.7879206556
 Pt        12.5515097672       15.1606615068        8.2484915899
 Co        12.4419477518        9.9784699594       16.5183161296
 Co        12.5057361391       10.0366675858        8.4407433974
 Co        15.0182759651       16.5157344407       12.5540374183
 Co        10.0318051990       16.5615561833       12.5034013516
 Co        14.9649963070        8.4313834849       12.4934107642
 Pt         9.8355727650        8.2374393461       12.4485899581
 Pt        16.7273867784       12.4481440311       15.1600967779
 Co        16.5637655581       12.4910040099       10.0332422370
 Co         8.4314265375       12.5025297006       14.9630837132
 Pt        12.5257783306       16.7814023637       12.5300033963
 Pt        12.4848858564        8.1677594031       12.4684934964
 Pt         8.1781690476       12.5190698971       12.4862513713
 Pt        16.8265614068       12.4614818259       12.5136524471
 Pt        12.5352052542       12.5153642579        8.1825416571
 Pt        12.4579086824       12.4563836501       16.8122426672
 Pt        13.7894097031        8.9745261593       14.6503398241
 Pt        11.1149942945        8.9657193520       14.6582397447
 Pt        13.8320481962        8.9961397587       10.3122250120
 Pt        11.1579225132        9.0026442136       10.2768597365
 Pt        15.9971456056       10.3079537764       11.1683825560
 Pt        15.9917582380       10.2626945837       13.8462590590
 Pt         8.9316042634       10.3138365430       11.1030695591
 Pt         8.9315990239       10.3265203398       13.8138500600
 Pt        13.8961241034       16.0330105292       10.3610646459
 Pt        13.8502687541       15.9922960702       14.7038175339
 Pt        11.1884646934       16.0499063516       10.3397273585
 Pt        11.1405937916       16.0322973606       14.6939993798
 Pt        10.3308289560       13.9032457703        8.9300780913
 Pt        14.7387521026       13.8487762575        8.9999475971
 Pt        10.3574946803       11.1874236923        8.9646612415
 Pt        14.6851530624       11.1687575053        9.0073748309
 Pt         9.0025020292       14.6828762001       13.8244438527
 Pt         9.0097170661       14.7275904753       11.1487917569
 Pt        10.2946681254       11.1547017742       15.9574325153
 Pt        14.6214738697       11.1043762319       16.0291829283
 Pt        14.6793434173       13.8169936525       16.0873998953
 Pt        10.2702089872       13.8365525429       16.0210735737
 Pt        16.0200327448       14.6487609846       11.2053375371
 Pt        16.0119513820       14.6554327670       13.8783984738
