      55
 i =       22, E =     -7845.6519729038
 Co        12.5000004852       12.4999989805       12.5000143718
 Co        12.4969653884       13.7072521024       14.4509669268
 Co        12.4969648119       13.7072423553       10.5490664730
 Co        12.5030355497       11.2927471971       14.4509664271
 Co        12.5030340719       11.2927565811       10.5490671505
 Co        13.7016712365       14.4548555251       12.5000061764
 Co        11.2973098316       14.4280782186       12.5000082707
 Co        13.7026918147       10.5719186891       12.5000065603
 Co        11.2983292287       10.5451428644       12.5000086671
 Co        14.4329596599       12.5003092244       13.6922414867
 Co        14.4329581931       12.5003077835       11.3077723249
 Co        10.5670409547       12.4996891595       13.6922437054
 Co        10.5670416892       12.4996910193       11.3077748822
 Pt         8.4293938366       12.4805759524        9.9743411384
 Co        12.4937165658       14.8979028568       16.3716781200
 Co        12.4937115856       14.8978507966        8.6283991701
 Co        12.5062863701       10.1021009566       16.3716718551
 Co        12.5062830710       10.1021516581        8.6284054580
 Co        14.8869898437       16.3748952030       12.4999985543
 Pt         9.9745680969       16.5730817662       12.5000133023
 Pt        15.0254327096        8.4269155757       12.5000080146
 Co        10.1130128555        8.6251133758       12.5000034466
 Pt        16.5706112203       12.5194319296       15.0256917477
 Pt        16.5706025019       12.5194249346        9.9743318394
 Pt         8.4293904440       12.4805696032       15.0256998410
 Co        12.4961931322       16.4897933222       12.4999980333
 Co        12.5038045667        8.5102031981       12.4999993095
 Co         8.4989899903       12.4938490482       12.5000162176
 Co        16.5010098476       12.5061504389       12.5000092392
 Co        12.4999944149       12.4999979280        8.5415622131
 Co        12.5000037848       12.4999989537       16.4584713084
 Co        13.7521288289        9.2910392748       14.4992716183
 Co        11.2923690449        9.2900105107       14.4821095395
 Co        13.7521287020        9.2910466973       10.5007300805
 Co        11.2923698603        9.2900151112       10.5178998718
 Co        15.7538079653       10.5104489964       11.2713669096
 Co        15.7538037805       10.5104502827       13.7286892773
 Co         9.2886410466       10.4958139978       11.2746221536
 Co         9.2886450440       10.4958086234       13.7254432280
 Co        13.7076267056       15.7099819133       10.5178964688
 Co        13.7076314639       15.7099877386       14.4821061913
 Co        11.2478680188       15.7089503372       10.5007324560
 Co        11.2478733096       15.7089590232       14.4992726446
 Co        10.5086488918       13.7294980143        9.2775490178
 Co        14.4832648209       13.7462777107        9.2729129215
 Co        10.5167265130       11.2537140197        9.2729234110
 Co        14.4913454479       11.2704999412        9.2775417045
 Co         9.2462005526       14.4895485140       13.7287032199
 Co         9.2461896189       14.4895486739       11.2713818949
 Co        10.5167338458       11.2537246807       15.7271165561
 Co        14.4913510121       11.2705074248       15.7224823481
 Co        14.4832708805       13.7462775964       15.7271081406
 Co        10.5086531718       13.7294875521       15.7224879019
 Co        15.7113544883       14.5041855304       11.2746049057
 Co        15.7113561906       14.5041885617       13.7254264153
