      55
 i =       18, E =     -4087.3682420093
 Cu        12.4965509318       12.5038416508       12.4974254116
 Cu        12.5012206623       12.4972802752       14.8913908144
 Pt        12.5100231290       12.4856424879       17.4793482796
 Cu        14.3040939294       11.1738208199       16.0978584800
 Cu        14.2367206205       11.2420599572       13.5678683817
 Cu        14.2366666946       13.7798414313       13.5657089196
 Cu        11.8286036275       14.5621230523       13.5762128189
 Cu        10.3375457243       12.5015168952       13.5682793619
 Cu        11.8307559854       10.4588215795       13.5708407769
 Cu        13.1691573117       10.4369444876       11.4187406873
 Cu        14.6287093494       12.4910336235       11.4219967778
 Cu        13.1592571300       14.5561915903       11.4495848169
 Cu        10.7616586242       13.7701910616       11.4502822230
 Cu        10.7738409610       11.2334774803       11.4299830624
 Cu        12.4990516684       12.4776677698       10.0922497791
 Pt        16.1079626788        9.8609868690       14.7152678018
 Pt        16.0685498890       15.1340674878       14.7045150020
 Pt        11.1281246878       16.7048866985       14.6675389750
 Pt         8.0654321819       12.5222877380       14.7211739768
 Pt        11.1423288210        8.2393400069       14.7229727949
 Pt        13.8510119927        8.3289141499       10.2429144576
 Pt        16.9435868943       12.5102219975       10.2651089279
 Pt        13.8639487198       16.7526196600       10.2642935309
 Pt         8.8789090855       15.1246402432       10.2776638431
 Pt         8.8837649782        9.8846785832       10.2842582538
 Pt        12.4998180157       12.4500756756        7.5795344845
 Pt        14.3075341458       13.8391953849       16.1399395877
 Cu        11.8085709811       14.6412132242       16.1067226163
 Pt        10.2573565097       12.5149580469       16.1452760371
 Cu        11.8261122583       10.3670311946       16.0987808452
 Cu        16.0989217628       12.4976762120       14.7484272880
 Pt        13.6366927079        9.0143559594       14.6833812974
 Cu        15.0260185328        9.0402988037       12.4447556320
 Pt        16.5640328446       11.1740166866       12.4849255954
 Cu        13.6048564935       15.9602154660       14.7056356244
 Cu        16.5150987819       13.8285419199       12.5240842109
 Cu        14.9607881132       15.9615551025       12.5087782719
 Cu         9.5756535883       14.6367284397       14.7117873506
 Cu        12.4977414943       16.7614724356       12.4939476542
 Cu         9.9794626568       15.9489524437       12.4975093560
 Cu         9.5852787031       10.3684575688       14.7604488033
 Cu         8.4885863693       13.8356512344       12.5240762581
 Cu         8.4464232346       11.1747831839       12.5566260202
 Pt         9.9920709459        9.0258113422       12.4955914515
 Cu        12.4977350581        8.2298523652       12.4476050162
 Cu        15.4226788436       10.3816229394       10.2324950282
 Cu        11.3714525922        9.0833689135       10.2356435742
 Cu        13.1745442447       10.3737031956        8.8960531412
 Pt        15.4309808892       14.6449791988       10.2547621225
 Cu        14.7233169540       12.4755436911        8.8947240661
 Pt        11.3695155144       15.9443292868       10.2316020418
 Cu        13.1785903355       14.5815492436        8.8920183084
 Pt         8.8545495752       12.4976647729       10.2804119059
 Cu        10.6932633242       13.7707489500        8.8940578635
 Cu        10.6930600202       11.1603614902        8.8969738959
