      55
 i =       38, E =     -3078.4302128231
 Cu        12.5313962534       12.5016151214       12.4967685848
 Cu        12.5144995163       12.5028277974       14.9297115976
 Cu        12.5651557856       12.5040053077       17.3656971951
 Cu        14.2958033117       11.2165319564       16.0900362254
 Cu        14.2473256507       11.2244450737       13.5961826521
 Cu        14.2480574713       13.7755072712       13.5964468460
 Cu        11.8427211150       14.5686478696       13.5797483203
 Cu        10.3781900051       12.5043065060       13.5709159121
 Cu        11.8423279063       10.4376472523       13.5808827506
 Cu        13.1640822559       10.4344189877       11.4296113520
 Cu        14.6889654680       12.4957864825       11.4280791776
 Cu        13.1669478814       14.5662237092       11.4303704698
 Cu        10.7592392408       13.7809646221       11.4248901958
 Cu        10.7598017483       11.2320799648       11.4229686642
 Cu        12.4950429385       12.5039946954       10.0915818619
 Cu        15.9727507170        9.9713406343       14.6432027504
 Cu        15.9779215618       15.0274543177       14.6380604243
 Cu        11.2263365675       16.6614799572       14.6505948596
 Pt         8.0873499209       12.5125405580       14.7276433381
 Cu        11.2184546798        8.3553132688       14.6523713932
 Cu        13.8278654039        8.4241348803       10.3580953096
 Cu        16.8235694071       12.4949139577       10.3587923085
 Cu        13.8348308485       16.5752990580       10.3588401085
 Cu         9.0260292332       15.0897044877       10.3055456411
 Cu         9.0207185998        9.9557568670       10.3000229476
 Cu        12.4983988388       12.5043498094        7.7101217095
 Cu        14.2935536799       13.8154113735       16.0910575765
 Cu        11.8353888246       14.6310667967       16.1057028344
 Pt        10.3136413057       12.5062757919       16.2314329960
 Cu        11.8337686526       10.3766272307       16.1060831431
 Cu        16.0525467424       12.4997677207       14.7040964862
 Cu        13.6100607659        9.0998788048       14.7073847577
 Cu        14.9629179688        9.1035501801       12.5027975387
 Cu        16.4960139091       11.1810627057       12.5043557970
 Cu        13.6153859386       15.9039956458       14.7053993417
 Cu        16.4971452607       13.7855954314       12.5076713079
 Cu        14.9675834617       15.8918908235       12.5010615138
 Pt         9.5916395130       14.7407225524       14.7828620681
 Cu        12.5031763372       16.7068699864       12.5012721989
 Cu        10.0255006835       15.9549949824       12.5028767543
 Pt         9.5840899125       10.2774262887       14.7838832197
 Pt         8.4115190438       13.8962766177       12.4437183918
 Pt         8.4061261673       11.1335585896       12.4452388789
 Cu        10.0217433777        9.0822026871       12.5008918561
 Cu        12.4971816392        8.2967549704       12.5016040882
 Cu        15.3769460076       10.3997996631       10.2996773496
 Cu        11.3794477398        9.1041374370       10.2997820423
 Cu        13.1656653949       10.4168817637        8.9554051087
 Cu        15.3787510768       14.5849800504       10.3008139167
 Cu        14.7005120503       12.4987047391        8.9494270851
 Cu        11.3909074012       15.9053544238       10.3016890039
 Cu        13.1693200797       14.5902965847        8.9551447979
 Cu         8.8981322050       12.5121732303       10.2893732526
 Cu        10.7031155530       13.8174908804        8.9499693786
 Cu        10.6998287116       11.2262151411        8.9468527807
