      55
 i =       91, E =     -6176.7503739882
 Pt         9.7519842482        9.6324272492        8.4961855371
 Pt        13.7775420504        8.9809651442       11.8202138584
 Pt        11.3323002554        8.3081288453       12.5350221106
 Cu        11.6341861491       12.2993340342       10.0309659708
 Pt         9.6613635804       14.0352507664        9.7514618142
 Pt        11.6499349637       13.8985284471        7.8882445569
 Pt         9.7175870990       12.2039856372        7.7937423905
 Pt         7.7136137292       12.6567285299       14.4924693273
 Pt        12.5188579177       11.2838718830       14.1728357944
 Cu        13.7803681823       14.0422453274       11.6963486044
 Cu        14.5736640045       12.7659191375       13.7733031754
 Pt        13.2801717000        8.7015034158       14.3664793854
 Pt         9.0756362596       11.4979468094       10.2577723200
 Pt         9.9645815431        9.9064095470       17.3211984742
 Pt         8.3341444881       10.1677851810       15.2401827144
 Pt        16.3672148189       12.9562592830       11.7670293725
 Pt        14.7965557038       15.9665666072       13.3541672862
 Pt        16.2512865939       11.9133714573        9.3560441050
 Cu        11.3685776266       13.5377348017       12.0416828750
 Pt         8.1336828769       15.2202779464       13.8368267584
 Pt         9.2435811837        8.9368762587       10.9589644544
 Pt        12.9608417474       16.7472539018       15.0482955272
 Pt        12.0610481983       10.9219180102        7.9575479233
 Pt        16.8161018961       11.3933098418       13.8772811506
 Pt        15.5676635122       14.4005453816        9.7685048359
 Pt        16.7862820764       15.5484800922       11.8295715489
 Pt        11.8837881757       15.3927078300       10.1238873352
 Cu        12.5554224079       14.0343027948       14.0903253803
 Pt        10.3029112997       12.5372954466       14.2169234751
 Pt        16.1643542572       12.7152075165       16.1588082523
 Pt        15.8088319851        8.9137245948       13.5636088386
 Pt         8.2437573436       10.7434646828       12.6507193886
 Pt        10.9699158580       12.3210915965       16.8455198489
 Pt         9.3682753244       14.2312912573       16.0244013878
 Cu        10.8233735173       10.9668290750       12.2317400981
 Pt        14.1385875325       10.3471019496        9.5206762543
 Pt         8.6857322111       13.2776394662       12.1052191998
 Pt        13.8811795537       12.7919043536        8.5707198775
 Pt        16.7238276596       14.1551509170       14.0756557043
 Pt         8.8157843144        8.3064937384       13.4509393804
 Pt        14.8659227660       10.5227604731       15.4276714590
 Pt        10.7691423878        9.2211654944       14.9136543142
 Pt        12.5277844362       10.0956558378       16.6512692017
 Pt        14.2948937822       16.4389964795       10.7574749470
 Pt        12.3248281233       16.2188635664       12.5397159180
 Pt         9.8589172503       15.6599008106       11.8276047948
 Pt        13.5305470842       12.5440715826       16.4671332839
 Pt        10.5499014194       15.9166799655       14.4346434498
 Pt        13.7263459263       15.4407823503        8.2438946302
 Pt        11.9714006641       14.7239814819       16.4659534292
 Pt        11.7698425351        9.4796677363       10.2002020347
 Pt        16.0309221257       10.3936348713       11.4606528164
 Pt        13.3596244859       11.5902083731       11.7546420526
 Pt        14.6175359211       14.8248168378       15.7307138519
 Pt         8.3228986104       12.0078244254       17.0404836976
