      55
 i =       62, E =     -6676.4894493764
 Fe        12.5113108950       12.5030405526       12.3738783543
 Fe        12.5020853710       12.5008196664       14.6802284461
 Pt        12.4925213468       12.4598722597       17.3967732008
 Pt        14.3616358862       11.1474928837       16.0646641305
 Fe        14.1752859762       11.3087938169       13.3747862725
 Fe        14.1730441891       13.7603519669       13.4323429638
 Fe        11.8388011431       14.4942707482       13.4310508215
 Fe        10.4149156933       12.5008980601       13.4257926159
 Fe        11.8904213097       10.5546180644       13.3722492835
 Fe        13.1565536504       10.5750721353       11.3040273051
 Fe        14.5796239294       12.5564084061       11.3080916518
 Fe        13.1107588709       14.5010720916       11.3641051289
 Fe        10.8276944833       13.7201526008       11.3621844916
 Fe        10.8222865489       11.2951996106       11.3011726176
 Fe        12.4979239410       12.5617094614       10.0384893993
 Pt        16.1495203206        9.8579776805       14.5937446764
 Fe        15.8912952744       14.9739156050       14.4992370241
 Fe        11.1713663981       16.5028128238       14.5097503372
 Fe         8.2900098090       12.4801855399       14.4904546188
 Fe        11.1802444732        8.3739613865       14.4945269713
 Pt        13.8972792664        8.2721527446       10.0784667850
 Fe        16.6999876906       12.5640021873       10.2754416418
 Pt        13.8650498714       16.8305490119       10.1615689953
 Pt         8.8278142628       15.1672054393       10.1400125906
 Fe         9.0983703362       10.0373122958       10.2356146415
 Fe        12.4987349430       12.5684599123        7.6367631544
 Pt        14.3464091413       13.8402142254       16.0656937864
 Pt        11.7704012506       14.6693049245       16.0740917409
 Pt        10.1928580344       12.4728245392       16.0618586795
 Pt        11.7866236687       10.2960119060       16.0043948669
 Pt        16.1755504229       12.5277196322       14.6465823154
 Pt        13.6174471083        9.0133088120       14.5922004448
 Pt        15.0819294520        9.0058516132       12.3243266129
 Pt        16.6200615718       11.2085943205       12.3367603025
 Pt        13.6128636857       15.9820653032       14.6690529268
 Pt        16.5835476166       13.8728262161       12.3828426695
 Pt        15.0517795876       16.0423775818       12.4227147496
 Pt         9.5261334570       14.6301600350       14.6613908097
 Pt        12.4708808609       16.8500017091       12.4338552427
 Pt         9.9478612779       15.9959951205       12.4198628661
 Pt         9.5507034736       10.3289344082       14.6028397111
 Pt         8.3596687166       13.8125648490       12.4011202078
 Pt         8.3967636151       11.1596142031       12.3628259714
 Pt         9.9863596618        9.0351676354       12.3412655517
 Pt        12.4892382276        8.1993396120       12.3444775868
 Pt        15.5039433239       10.4046078411       10.0620015402
 Pt        11.3465598304        9.0254218980       10.0442292629
 Pt        13.2012168326       10.4108033762        8.6389185015
 Pt        15.4950536974       14.7198701165       10.1105996944
 Pt        14.7595406174       12.5677883560        8.7089333612
 Pt        11.3327371582       16.0550434364       10.1164999176
 Pt        13.1902357642       14.7054979807        8.6949377210
 Pt         8.8017469796       12.4939004300       10.1033968573
 Pt        10.6679392483       13.8635866855        8.7052445219
 Pt        10.6761162099       11.2101646602        8.6967561267
