      55
 i =      114, E =     -6726.5179793079
 Fe        12.5410159935       12.4673569603       12.4918796920
 Fe        12.5060737625       12.5179572743       14.8261316141
 Pt        12.5564765521       12.4179621453       17.3364341800
 Fe        14.2448985077       11.2893979259       15.8455667293
 Fe        14.2214349094       11.2386654101       13.5035294456
 Fe        14.1705162799       13.6962523865       13.5217558289
 Fe        11.8880814865       14.4319036146       13.4449666274
 Fe        10.4893716732       12.4794554614       13.5148015493
 Fe        11.9128979860       10.4938143324       13.5030101170
 Fe        13.1696119159       10.5575363227       11.4370217011
 Fe        14.6344804331       12.5048730353       11.4942937722
 Fe        13.1713628134       14.4305584494       11.4268831201
 Fe        10.8430178503       13.6409300319       11.4257402697
 Fe        10.8312112306       11.2337801454       11.4924235469
 Fe        12.5523955254       12.4325498827       10.2316206552
 Pt        16.0940369030       10.0194037597       14.7451533153
 Pt        16.0597771243       15.0570311670       14.4914966656
 Pt        11.1944631114       16.5107558478       14.6246049624
 Pt         8.1699732755       12.4232649530       14.4824765298
 Pt        11.1425446051        8.3764231550       14.7380795936
 Pt        13.8969621098        8.3968660619       10.4179080413
 Pt        16.8307504513       12.3886407741       10.1832317070
 Pt        13.8853023729       16.6659802037       10.3982888391
 Pt         8.9669074022       15.0283562757       10.3950474414
 Pt         9.1543244668        9.8286490205       10.1657213237
 Pt        12.5277643635       12.4761381667        7.7000289810
 Pt        14.4620235702       13.7877626370       16.1624031641
 Fe        11.8978370748       14.4287007576       15.8229189216
 Pt        10.2078205511       12.3704312733       16.1600143691
 Fe        11.8865422419       10.4938717665       15.8465587207
 Fe        15.9702116288       12.5232805233       14.4944891789
 Pt        13.6834686442        9.0064155828       14.9056621015
 Fe        14.8399635839        9.2979280853       12.5728829806
 Pt        16.7098991369       11.1259037845       12.4680342194
 Fe        13.5820323980       15.7025566451       14.5126300228
 Fe        16.2993473989       13.6963731536       12.4212615066
 Fe        14.8983352255       15.6969523232       12.4447971691
 Fe         9.7617091796       14.4303857307       14.5031218727
 Fe        12.6296520156       16.4546907711       12.5613528193
 Fe        10.0956243046       15.6261559405       12.5589914379
 Fe         9.7585125697       10.4542344148       14.4920670589
 Fe         8.7071881832       13.6389096783       12.4396527551
 Fe         8.7756874095       11.2275892940       12.3765863184
 Pt         9.9740561775        8.9053654330       12.4678603883
 Fe        12.5670543940        8.5598001348       12.5688091474
 Fe        15.2312523957       10.4935268672       10.3615054465
 Fe        11.5693474744        9.2387386158       10.3642191129
 Fe        13.2289786650       10.4404423120        9.0503404941
 Pt        15.5280481160       14.6509567011       10.1293256453
 Fe        14.5708677640       12.4333950743        9.0935874268
 Pt        11.3513474099       16.0710329992       10.3344108301
 Fe        13.1004868619       14.4600420163        9.1593642194
 Pt         8.8595637098       12.4291158415       10.0937819195
 Fe        10.9043932369       13.7634565570        9.1585348732
 Fe        10.9636921705       11.1739144635        9.0998017695
