      55
 i =      123, E =     -6629.2989479894
 Pt        12.5904577594       12.5262992359       12.4836295965
 Pt        12.8495145335       13.8876192172       14.6314911859
 Pt        12.1109235406       13.8828124001       10.3892729083
 Pt        12.7137086984       11.2110503930       14.6136220564
 Pt        12.6816986968       11.2769261834       10.2946724475
 Pt        13.9421230539       14.6177732487       12.1944203344
 Fe        11.2993811245       14.6310892412       12.7700353633
 Fe        13.8288107985       10.3663462266       12.4457975445
 Pt        11.1481067476       10.4723269809       12.3209333894
 Fe        14.7912874987       12.3757936406       13.5700466734
 Fe        14.7599979671       12.3614302675       11.2299277802
 Fe        10.5770227635       12.4917250023       13.9518081761
 Fe        10.2310073630       12.7763272587       11.6937643500
 Pt         8.4996255141       12.3372924225        9.8745599680
 Pt        12.4589999072       15.1587173915       16.8586493155
 Pt        12.4932523354       15.2432034456        8.1484771784
 Pt        12.7106534413        9.8045193211       16.7879498512
 Pt        12.7194352377        9.8786242294        8.0810214879
 Pt        15.0457002210       16.9776046737       12.5067001069
 Pt         9.8074905468       16.6173242116       12.4769103299
 Pt        15.3746892338        8.3928137758       12.4023167848
 Pt        10.1083511369        8.0751523459       12.4336454714
 Pt        16.7549415324       12.7163239825       15.0826958439
 Pt        16.8042990050       12.7743683013        9.8431284838
 Pt         8.3562629735       12.2906378824       15.0770416861
 Pt        12.3931158860       16.9690202946       12.5026254843
 Pt        12.7639867261        8.0686350400       12.4238903790
 Pt         8.0082925401       12.2502951230       12.4551403415
 Pt        17.0074560951       12.7843818460       12.4607552847
 Pt        12.6027518754       12.5792193660        7.8957261795
 Pt        12.5693465482       12.4700771372       17.0522668869
 Pt        14.1419825116        8.9125592393       14.6770161170
 Pt        11.3558769979        8.7883192313       14.7021431027
 Pt        14.1075804915        8.9614232774       10.1740102326
 Pt        11.3276178904        8.7812978352       10.1369333274
 Pt        16.2818532926       10.4563331316       11.0294161835
 Pt        16.2800336190       10.4418742801       13.8109280243
 Pt         8.9649657931       10.0396296949       11.0051353210
 Pt         9.0362821744       10.0723568317       13.8649109062
 Pt        13.8238609633       16.3598592259       10.1806364356
 Pt        13.7985247919       16.3087588510       14.8038800388
 Pt        11.0390064167       16.2302383053       10.1819039118
 Pt        11.0085640276       16.0819532166       14.7739659860
 Pt        10.2335048852       13.8676921906        8.6638002708
 Pt        14.6896102348       14.0254961306        8.9849747851
 Pt        10.4551348283       11.0437823418        8.8087907046
 Pt        14.9130404877       11.2838881831        8.7678961659
 Pt         8.9122884366       14.5242106112       13.7964820240
 Pt         8.8698580566       14.6586890497       11.0024033755
 Pt        10.3960680539       10.9846221860       16.1037901474
 Pt        14.9170718271       11.2007474511       16.1354880804
 Pt        14.8238312051       14.0138872755       16.2900172021
 Pt        10.3041383454       13.7666963979       16.0860357173
 Pt        16.2308963495       15.0537243563       11.0531217181
 Pt        16.0160873768       14.9314324675       13.8999880340
