      55
 i =        6, E =     -5934.1699553784
 Pt         8.0949652576       12.4999996938        9.7815925781
 Pt        12.4999997000       15.2184083983       16.9050360488
 Pt        12.4999996982       15.2184071944        8.0949649884
 Pt        12.4999996981        9.7815913786       16.9050357827
 Pt        12.4999996956        9.7815925786        8.0949652646
 Pt        15.2184083971       16.9050360496       12.4999997016
 Pt         9.7815913803       16.9050357807       12.4999996998
 Pt        15.2184071930        8.0949649910       12.4999996959
 Pt         9.7815925785        8.0949652614       12.4999996940
 Pt        16.9050360541       12.4999997017       15.2184083980
 Pt        16.9050357814       12.4999996984        9.7815913799
 Pt         8.0949649913       12.4999996981       15.2184071920
 Pt        12.5000001116       17.1056695881       12.4999999650
 Pt        12.5000001123        7.8943298611       12.4999999598
 Pt         7.8943298574       12.4999999594       12.5000001125
 Pt        17.1056695908       12.4999999647       12.5000001108
 Pt        12.4999999591       12.5000001113        7.8943298596
 Pt        12.4999999645       12.5000001118       17.1056695901
 Pt        13.9039912093        8.8223510739       14.7737853519
 Pt        11.0960084594        8.8223510848       14.7737855681
 Pt        13.9039912622        8.8223511154       10.2262145766
 Pt        11.0960084102        8.8223511391       10.2262143657
 Pt        16.1776485736       10.2262144688       11.0960083299
 Pt        16.1776485988       10.2262146761       13.9039913449
 Pt         8.8223511375       10.2262143644       11.0960084107
 Pt         8.8223511128       10.2262145745       13.9039912630
 Pt        13.9039913453       16.1776485974       10.2262146778
 Pt        13.9039912871       16.1776486235       14.7737852398
 Pt        11.0960083290       16.1776485757       10.2262144681
 Pt        11.0960083828       16.1776486155       14.7737854553
 Pt        10.2262145734       13.9039912633        8.8223511133
 Pt        14.7737853526       13.9039912078        8.8223510758
 Pt        10.2262143645       11.0960084099        8.8223511385
 Pt        14.7737855684       11.0960084602        8.8223510864
 Pt         8.8223510765       14.7737853513       13.9039912084
 Pt         8.8223510834       14.7737855697       11.0960084595
 Pt        10.2262144679       11.0960083301       16.1776485727
 Pt        14.7737854584       11.0960083819       16.1776486176
 Pt        14.7737852412       13.9039912873       16.1776486248
 Pt        10.2262146775       13.9039913443       16.1776485954
 Pt        16.1776486176       14.7737854572       11.0960083819
 Pt        16.1776486239       14.7737852409       13.9039912869
 Mo        12.5000007515       12.5000007504       12.5000007516
 Mo        12.5000006235       13.8527315499       14.7898920065
 Mo        12.5000006391       13.8527317209       10.2101077738
 Mo        12.5000006381       11.1472682506       14.7898945426
 Mo        12.5000006536       11.1472681504       10.2101052822
 Mo        13.8527315532       14.7898920022       12.5000006182
 Mo        11.1472682565       14.7898945320       12.5000006288
 Mo        13.8527317143       10.2101077850       12.5000006478
 Mo        11.1472681407       10.2101052798       12.5000006579
 Mo        14.7898920151       12.5000006179       13.8527315619
 Mo        14.7898945351       12.5000006371       11.1472682597
 Mo        10.2101077842       12.5000006400       13.8527317072
 Mo        10.2101052694       12.5000006588       11.1472681357
