      55
 i =       16, E =     -5206.5113203318
 Pt         8.2355783704       12.6088186896       10.9065630014
 Pt        10.2540482803        8.2719747681       12.0049291136
 Pt        14.4306131637        9.7271355406       11.6897964407
 Pt         7.7818772900       12.4649465836       13.6057459990
 Pt         9.3974934896       10.5224774553       15.1940773876
 Pt        13.3432966539       17.3371852038        9.8315800347
 Pt        16.6868524426       13.9963909972        9.8817357545
 Pt        10.4265141142       16.6641696356       11.1777292527
 Pt        13.2505415787        7.6668517366       15.3324172885
 Pt        15.7259559867       11.7961015464       12.9503583372
 Pt        15.4988856404       11.6614161428       10.2184175102
 Pt         8.7968355322       15.1527760729       14.8028662670
 Pt        14.6177282687        9.5372527306       16.8340628140
 Pt        10.7848438882       12.2366147312       16.9472663987
 Pt        17.2579920497       13.4844726724       15.0677531393
 Pt        15.6999420615       16.4339733261       13.6543122767
 Pt        15.7304611443       16.4141936164       10.9895588230
 Pt        13.7552519516       14.1731331032       16.8389947642
 Pt        13.3639782023       16.1708719248       15.0551466262
 Pt        12.1913430209       14.1797627509        7.8810644623
 Pt        10.9803844509       16.7108322795       13.8102260410
 Pt        11.3361352386        9.2532790943        8.2716435730
 Pt        13.3558835241       11.6947806773       17.7197310620
 Pt        12.4075612691       11.4646017574        7.2906501162
 Pt        14.7648908116       12.8344781540        7.8576943932
 Pt         9.1389890984        9.7763360614       10.0045172221
 Pt        12.7680660339        7.8049769427       10.3182049765
 Pt         9.8546825745       14.3616982818        9.6152677940
 Mo        16.7719160036       14.3316078566       12.6090331486
 Mo        14.1516073263       10.0276547344       14.3577012817
 Mo        14.7328909085       13.9578842688       14.2095396730
 Mo        12.0658654223        9.9635115607       16.0138927395
 Mo        12.9747009129       12.4143015996        9.6802211347
 Mo        11.2399122344       14.7336954623       15.6930796847
 Mo        10.7532036016       12.6006230316       11.5558857276
 Mo        10.5089270963       11.8053962196        9.0940862271
 Mo        11.4903855491       10.3256366945       13.4947560384
 Mo         8.5104278800       12.9648315562       16.0554961047
 Mo        11.2858110412       16.4138323572        8.7554310487
 Mo        12.7465469942        8.1966790637       12.9076994351
 Mo        14.5710808961       14.0280343849       11.4856137901
 Mo        10.6810689340        8.2650688513       14.5906683351
 Mo        12.1696023535       14.4607151062       13.3037213537
 Mo        12.8061281229       12.2741738430       15.2192162559
 Mo        13.1194230847       12.0366303901       12.4289454047
 Mo        10.3033749383       12.8789384521       14.3145658292
 Mo        13.3365735169       16.5227250555       12.3554897774
 Mo        11.7544375957       10.1496811396       10.7001784671
 Mo         9.1541984572       10.6928077160       12.4024378396
 Mo        15.2609096367       11.9284657792       15.7508926362
 Mo        13.7335071951       10.0311416106        9.1452038897
 Mo        14.3679958419       15.0376753807        9.1676678310
 Mo        12.2677266985       14.8913107188       10.5687110351
 Mo        15.8231149406       15.4041854425       15.9557499221
 Mo         9.4396850420       14.5965897184       12.3729189791
