      55
 i =       14, E =     -4790.6387685148
 Pt        10.9406573328        8.8753329008       14.8246095280
 Pt        13.8634558831        8.8602502272       10.2634890847
 Pt        14.0592041550       16.1247222221       10.1755505159
 Pt        11.1364041525       16.1398343615       14.7366551993
 Pt        10.2464125908       13.8955206784        8.8566170197
 Pt        14.7534488854       11.1045402101       16.1435452872
 Pt        16.2825995532       14.7480529142       13.7689228581
 Pt         7.9387432278       12.5748096484        9.7722776622
 Pt        12.5118476024       15.1824463639       17.0618485722
 Pt        12.5495280743       15.2180593975        7.9327597017
 Pt        12.4503438196        9.7819793758       17.0673930193
 Pt        12.4879626580        9.8176032576        7.9383256751
 Pt        15.2078829895       17.0403100267       12.5640551500
 Pt         9.6464925128       16.9563794003       12.4281807413
 Pt        15.3533867962        8.0437173636       12.5719553634
 Pt         9.7919417703        7.9597693285       12.4361175664
 Pt        17.0610961020       12.4252824038       15.2279076970
 Pt        17.0489201776       12.6249208635        9.7337058340
 Pt         7.9509298088       12.3751935438       15.2664603020
 Pt         8.7172318834       10.2520501752       11.2312705453
 Mo        12.4999163744       12.5000987064       12.5000717496
 Mo        12.4989294303       13.8784365662       14.8124444471
 Mo        12.5161742150       14.0006227497       10.2337802171
 Mo        12.4836702012       10.9994498072       14.7663826152
 Mo        12.5009150187       11.1216495330       10.1877156069
 Mo        13.9049348387       14.8365695104       12.5257292052
 Mo        11.0552613108       14.7717037353       12.4788954229
 Mo        13.9446219747       10.2283634661       12.5212448223
 Mo        11.0949065949       10.1635054980       12.4744340263
 Mo        14.8062927689       12.5828373149       13.9365518787
 Mo        14.7826872532       12.5321654298       11.1006592185
 Mo        10.2171523518       12.4679329641       13.8995007229
 Mo        10.1935608191       12.4172625487       11.0636150447
 Mo        12.4083578569       16.9492540796       12.1816958923
 Mo        12.5914995870        8.0508294563       12.8184384326
 Mo         7.9665704166       12.6482759719       12.4567051365
 Mo        17.0332889004       12.3518423453       12.5434743105
 Mo        12.5279888010       12.5044219757        8.0448476170
 Mo        12.4718484104       12.4956328043       16.9553211268
 Mo        13.7949812458        8.7492768085       14.7742467551
 Mo        10.9097442985        9.0916534200       10.0998624503
 Mo        16.2813706616       10.3648582023       11.2664126189
 Mo        16.1197555987       10.2813673960       13.8519536285
 Mo         8.8529526745       10.2855034965       13.9088514063
 Mo        14.0900767269       15.9084329211       14.9003138137
 Mo        11.2048895197       16.2507951365       10.2258841133
 Mo        14.6841718845       13.8071328724        8.7457712479
 Mo        10.1457009867       11.0078580300        8.8739586129
 Mo        14.7258159885       11.3281026212        8.7517462402
 Mo         8.7184896547       14.6352610208       13.7337331662
 Mo         8.8801307822       14.7187365580       11.1481934850
 Mo        10.3156818222       11.1929194180       16.2543969198
 Mo        14.8541219138       13.9922210851       16.1262162310
 Mo        10.2740204685       13.6719612312       16.2484012440
 Mo        16.1469063290       14.7145910994       11.0913542901
