      55
 i =       12, E =     -3750.2262276323
 Mo        12.4999990240       12.4999998585       12.4999977846
 Mo        12.4999999060       13.8699279909       14.7736447444
 Mo        12.4999985436       13.8699290009       10.2263529796
 Mo        12.5000007348       11.1300707601       14.7736448698
 Mo        12.4999993723       11.1300717271       10.2263526424
 Mo        13.8699275614       14.7736453061       12.4999994181
 Mo        11.1300705807       14.7736458235       12.5000002468
 Mo        13.8699285247       10.2263545363       12.4999980563
 Mo        11.1300715949       10.2263538080       12.4999988850
 Mo        14.7736448114       12.5000001751       13.8699272208
 Mo        14.7736456454       12.5000010035       11.1300698714
 Mo        10.2263542028       12.4999988133       13.8699282166
 Mo        10.2263531564       12.4999996418       11.1300708537
 Mo         7.7292720055       12.4999939698       10.0595460428
 Mo        12.5000064420       14.9404575856       17.2707258217
 Mo        12.5000024743       14.9404515018        7.7292730651
 Mo        12.4999982350       10.0595512387       17.2707271094
 Mo        12.4999942689       10.0595436594        7.7292733436
 Mo        14.9404587537       17.2707263165       12.5000070111
 Mo        10.0595522062       17.2707284672       12.4999988003
 Mo        14.9404519024        7.7292724262       12.5000030444
 Mo        10.0595453881        7.7292718431       12.4999948304
 Mo        17.2707254965       12.5000061476       14.9404596620
 Mo        17.2707282817       12.4999979360       10.0595530623
 Mo         7.7292732266       12.5000021794       14.9404530172
 Mo        12.5000078711       17.2166973217       12.5000015140
 Mo        12.4999984865        7.7833023824       12.4999995500
 Mo         7.7833024703       12.4999990518       12.4999997762
 Mo        17.2166970596       12.5000010164       12.5000091570
 Mo        12.4999993119       12.4999967896        7.7833023542
 Mo        12.5000012763       12.5000061692       17.2166972977
 Mo        13.8822320928        8.8803252966       14.6730186852
 Mo        11.1177700293        8.8803255674       14.6730180165
 Mo        13.8822297935        8.8803263508       10.3269795588
 Mo        11.1177694473        8.8803250589       10.3269782400
 Mo        16.1196747441       10.3269820978       11.1177663217
 Mo        16.1196732016       10.3269801422       13.8822276669
 Mo         8.8803249338       10.3269775365       11.1177697429
 Mo         8.8803264597       10.3269785173       13.8822290228
 Mo        13.8822285344       16.1196736573       10.3269811311
 Mo        13.8822277900       16.1196737793       14.6730238410
 Mo        11.1177659266       16.1196749673       10.3269827512
 Mo        11.1177695495       16.1196735267       14.6730202341
 Mo        10.3269788507       13.8822300969        8.8803260216
 Mo        14.6730190916       13.8822326315        8.8803249359
 Mo        10.3269768524       11.1177701632        8.8803250834
 Mo        14.6730191040       11.1177705044        8.8803255594
 Mo         8.8803252880       14.6730191442       13.8822318235
 Mo         8.8803253245       14.6730181382       11.1177698191
 Mo        10.3269814711       11.1177668315       16.1196744152
 Mo        14.6730212145       11.1177702170       16.1196730071
 Mo        14.6730241396       13.8822281412       16.1196736128
 Mo        10.3269805323       13.8822286494       16.1196734599
 Mo        16.1196734192       14.6730203059       11.1177694395
 Mo        16.1196734390       14.6730242495       13.8822274246
