      55
 i =       58, E =     -8671.8546216658
 Ni        12.5012444392       12.5063916326       12.4882403907
 Ni        12.5012911867       13.7641531634       14.4417051481
 Ni        12.4996887873       13.7634538663       10.5124618575
 Ni        12.5020510124       11.3039804623       14.4906905291
 Ni        12.4999218027       11.2941919385       10.5011817636
 Ni        13.7653368372       14.4900896156       12.4919041480
 Ni        11.2943961651       14.4978964870       12.4948006027
 Ni        13.7593227837       10.5550228416       12.5002820396
 Ni        11.3041023854       10.5041098362       12.4959814570
 Ni        14.4966679808       12.5075541858       13.7038280393
 Ni        14.4905113045       12.5024843589       11.2386189569
 Ni        10.5093935856       12.4963786997       13.7005192906
 Ni        10.5186082434       12.5036304118       11.2406970163
 Pt         8.3708727544       12.5933235936        9.9061858321
 Pt        12.5111954705       15.0669195259       16.6108847123
 Pt        12.5292194575       15.0586839210        8.3610127756
 Pt        12.5398176507        9.9693928287       16.6426164064
 Pt        12.5102844930        9.9636349590        8.3673845209
 Pt        15.0613832043       16.6451549361       12.4808488967
 Pt         9.9666529253       16.6429346678       12.4999991499
 Pt        15.0897242622        8.4224491129       12.4902735054
 Pt        10.0331488673        8.3170566123       12.5549352500
 Pt        16.6317060423       12.5372606439       15.0509842188
 Pt        16.6494269491       12.5226011628        9.9416057098
 Pt         8.4096212740       12.5078003411       15.0589377955
 Ni        12.5034960702       16.5697414505       12.4953444681
 Ni        12.5608175084        8.4341833823       12.4991905489
 Ni         8.4303758798       12.5600320870       12.4997514287
 Ni        16.5705654837       12.5595372558       12.4979535954
 Ni        12.5032128884       12.5020481456        8.4312972523
 Ni        12.5068856454       12.5072694292       16.5661699183
 Ni        13.7779732938        9.2321999389       14.5436474153
 Ni        11.2937249916        9.2253724825       14.5621624494
 Ni        13.7681132113        9.2331278775       10.4436712589
 Ni        11.2426286753        9.1733252640       10.4388149009
 Ni        15.8315172208       10.4985650046       11.2338962550
 Ni        15.8337035575       10.4961657668       13.7629134622
 Pt         9.0800951569       10.3903048215       11.2006867779
 Ni         9.2327125480       10.4417252208       13.7752262304
 Ni        13.7674941067       15.8288377234       10.4400770549
 Ni        13.7657253152       15.8291512353       14.5082325727
 Ni        11.2381814111       15.8295882089       10.4364266416
 Ni        11.2371806223       15.8328460036       14.5570235045
 Ni        10.4936259583       13.7698106297        9.1694407260
 Ni        14.5608652753       13.7706670305        9.2238417062
 Ni        10.4411129128       11.2355601779        9.1664391895
 Ni        14.5649339827       11.2379382105        9.1721525800
 Ni         9.2299032390       14.5622808277       13.7648651544
 Ni         9.2322408705       14.5674934724       11.2317657071
 Ni        10.4909352478       11.2369417705       15.8234830855
 Ni        14.5645869510       11.2403920473       15.7720193111
 Ni        14.5106113843       13.7667984524       15.7664933383
 Ni        10.4970352555       13.7646810971       15.7711170690
 Ni        15.8285123260       14.5662169258       11.2329846783
 Ni        15.8264835588       14.5703447423       13.7654470690
