      55
 i =       23, E =     -6609.0497915270
 Pt         9.8715646339        9.8460339473        8.4031216537
 Pt        14.0013024507        8.6405878595       11.7170703200
 Pt        11.4330944360        8.2816734400       12.4030861732
 Pt        11.2121275731       12.0726345538       10.2794818761
 Pt         9.6045031297       14.2496787084        9.7833824138
 Pt        11.8125223451       13.8821089789        8.2331979930
 Pt         9.7854621486       12.4038961147        7.7312419541
 Pt         7.9164486835       12.6242140399       14.4007292534
 Pt        12.9416661206       11.5406549933       14.2740217005
 Pt        13.1972917689       13.7286548403       11.1109169939
 Pt        14.8215281847       12.7526868875       12.8779772446
 Pt        13.2747464971        8.8183026019       14.3054424284
 Pt         8.6226263038       11.6346779836        9.9732763182
 Pt         9.8464622103        9.7650089675       17.2294650203
 Pt         8.2866563518       10.1133547208       15.0851223413
 Pt        17.1372444913       12.9667085796       11.7579548683
 Pt        14.8059116837       16.2381536202       13.5723345326
 Pt        16.5098006252       11.8366324818        9.4283910717
 Pt        10.5838105703       13.4852381759       12.3321210096
 Pt         8.0910040084       15.1899933799       13.8639023455
 Pt         9.4266477006        9.1415415744       10.8069551992
 Pt        12.8550965226       16.7275688900       15.2583006471
 Pt        12.1797826764       11.1110291977        8.0581435167
 Pt        16.7191177645       11.4392647072       14.0193569343
 Pt        15.8142026755       14.3165370599        9.9551736133
 Pt        16.7677614374       15.6566462630       12.0017553718
 Pt        11.7833048382       15.8136221149       10.1684166622
 Pt        12.6976886516       14.1310654691       13.7280352178
 Pt        10.5280324873       12.4721780210       14.6529390499
 Pt        16.0705298545       12.7257679467       16.2495391281
 Pt        15.8209043733        8.9583238111       13.6344937615
 Pt         8.1797743439       10.8309017552       12.4703400893
 Pt        10.8996834119       12.2227981059       17.1926250418
 Pt         9.2638018653       14.2310657535       16.1551541903
 Pt        10.8488838962       10.8869800131       12.6199543536
 Pt        14.3850086547       10.2658456820        9.3892640699
 Pt         8.0609644009       13.4105880022       11.8659087937
 Pt        14.1604899127       12.7839477278        8.6574170642
 Pt        16.5527318972       14.1896156814       14.1492571224
 Pt         8.8576121819        8.3857839148       13.2165002640
 Pt        14.9230530246       10.3906032524       15.6920270909
 Pt        10.7439476934        9.2198552069       14.8110275761
 Pt        12.4191873116        9.9892007350       16.6101988522
 Pt        14.2974447385       16.1784373575       11.0136299696
 Pt        12.2676430931       16.5510881905       12.6867340263
 Pt         9.7996388686       15.8725751666       11.9132732399
 Pt        13.4945676125       12.4082985746       16.7376608528
 Pt        10.4449141770       15.9641608190       14.5438980206
 Pt        13.8789650297       15.4322990747        8.5142496945
 Pt        11.8911731605       14.5136010503       16.3481718670
 Pt        12.0221580613        9.2516396013       10.0217598295
 Pt        16.1108902138       10.4284594093       11.5468361706
 Pt        13.3409273360       11.1060305462       11.6021788898
 Pt        14.4625772774       14.7125857891       15.7670104428
 Pt         8.2663435228       11.9055541079       16.9734958316
