      55
 i =        1, E =     -6609.0486773440
 Pt         9.8913442989        9.8547659987        8.3980850070
 Pt        14.0083333944        8.6388216472       11.7384561015
 Pt        11.4397475928        8.2740778253       12.4136679991
 Pt        11.1915882596       12.1498818163       10.3576181068
 Pt         9.5926289031       14.2729127770        9.8024264803
 Pt        11.8212422330       13.9061578213        8.2600193777
 Pt         9.7980695649       12.4238169520        7.7457020124
 Pt         7.8929339378       12.6120777247       14.3877020131
 Pt        12.9193909851       11.5416678616       14.2746881168
 Pt        13.2291742487       13.7225722926       11.0829981472
 Pt        14.8087852773       12.7165625562       12.8643158692
 Pt        13.2834288819        8.7890996574       14.3241577675
 Pt         8.6278377652       11.6288685883        9.9656871189
 Pt         9.8523071535        9.7896980788       17.2251899592
 Pt         8.2920446130       10.0956309369       15.0689137809
 Pt        17.1153171977       12.9661054228       11.7346874993
 Pt        14.8256470450       16.2718838894       13.5675081840
 Pt        16.5221400818       11.8332920255        9.4108278363
 Pt        10.4801337624       13.4746488115       12.4306455519
 Pt         8.1009695689       15.1730998215       13.8355332733
 Pt         9.4467591279        9.1493140950       10.8002978633
 Pt        12.8631500746       16.7432064494       15.2515292016
 Pt        12.1716483495       11.1515728788        8.1460309824
 Pt        16.7259305556       11.4340412667       14.0108492037
 Pt        15.8754416005       14.3494970487        9.8857329059
 Pt        16.7811683172       15.6512287382       11.9804285861
 Pt        11.8030231018       15.8254931297       10.1756919567
 Pt        12.6704092183       14.1166025546       13.6738865628
 Pt        10.4964299649       12.3867552689       14.7111181134
 Pt        16.0670431630       12.7311342619       16.2279900348
 Pt        15.8282151954        8.9579818069       13.6422453443
 Pt         8.1458087229       10.8095684388       12.4560528420
 Pt        10.9096646190       12.2543836349       17.2438530752
 Pt         9.2682722606       14.2280096452       16.1322403527
 Pt        10.8190400937       10.8632833166       12.6484146013
 Pt        14.3948518803       10.2778646424        9.3953956846
 Pt         7.9860449429       13.3830986658       11.8374474964
 Pt        14.1834166312       12.8023832020        8.6303941827
 Pt        16.5400695636       14.1845582898       14.1177618999
 Pt         8.8527571337        8.3662949438       13.1923406723
 Pt        14.9099987660       10.4003301301       15.6816004481
 Pt        10.7367757288        9.1270995130       14.8293680289
 Pt        12.4113059116       10.0017711250       16.5903723323
 Pt        14.3186078911       16.1555612979       11.0127729868
 Pt        12.2895659141       16.5538439783       12.6875793353
 Pt         9.8307994261       15.8855124264       11.9224628987
 Pt        13.4978630536       12.4240672522       16.7345812216
 Pt        10.4437149116       15.9884827441       14.5500591924
 Pt        13.8934236346       15.4542124343        8.5022931147
 Pt        11.8987802931       14.5208222485       16.3155540147
 Pt        12.0403934056        9.2275923224       10.0254432018
 Pt        16.1338318376       10.4119372685       11.5348137513
 Pt        13.3104203488       11.0938164966       11.5903497156
 Pt        14.4577296979       14.7173528803       15.7335299538
 Pt         8.2720859429       11.9051495678       16.9565650176
      55
 i =        2, E =     -6609.0490843075
 Pt         9.8918113480        9.8539732310        8.3989986686
 Pt        14.0098278929        8.6439883405       11.7347396656
 Pt        11.4408865248        8.2726029901       12.4115274419
 Pt        11.1902907341       12.1447280795       10.3555098814
 Pt         9.5953997015       14.2639214168        9.8072018646
 Pt        11.8198368090       13.9052303644        8.2635784647
 Pt         9.7968232551       12.4235066928        7.7443219935
 Pt         7.9003521951       12.6137739420       14.3865357894
 Pt        12.9176397077       11.5391123857       14.2712418101
 Pt        13.2256392378       13.7215666743       11.0873004200
 Pt        14.8109850244       12.7189080495       12.8671390617
 Pt        13.2799425783        8.7965581411       14.3207024453
 Pt         8.6339668763       11.6271484967        9.9664684277
 Pt         9.8532828001        9.7855320782       17.2272963672
 Pt         8.2933897090       10.0982683167       15.0723525754
 Pt        17.1091729984       12.9661928221       11.7358786432
 Pt        14.8279738734       16.2674094901       13.5650553615
 Pt        16.5210749464       11.8314236258        9.4125083832
 Pt        10.4835310691       13.4753957075       12.4323479310
 Pt         8.1034305124       15.1732867797       13.8349429009
 Pt         9.4475726658        9.1485375771       10.8003786483
 Pt        12.8637902627       16.7373257829       15.2496169369
 Pt        12.1707017105       11.1530110904        8.1427861752
 Pt        16.7233492524       11.4350811794       14.0101101696
 Pt        15.8684270826       14.3426989864        9.8940826958
 Pt        16.7810762092       15.6516647087       11.9837844789
 Pt        11.8027303278       15.8202274201       10.1778346115
 Pt        12.6745294696       14.1130851683       13.6750987095
 Pt        10.5024840475       12.3871501802       14.7127552239
 Pt        16.0679181889       12.7332295837       16.2276147804
 Pt        15.8276984447        8.9586763777       13.6385294675
 Pt         8.1546724460       10.8123493942       12.4586625289
 Pt        10.9071207266       12.2500446909       17.2375682299
 Pt         9.2666957360       14.2268767898       16.1314172962
 Pt        10.8186687294       10.8667030223       12.6462353406
 Pt        14.3935093403       10.2803584872        9.4002970502
 Pt         7.9956746909       13.3860578177       11.8386440766
 Pt        14.1798780124       12.8041659304        8.6439823445
 Pt        16.5373197888       14.1837414909       14.1174888120
 Pt         8.8527138464        8.3669635982       13.1951296106
 Pt        14.9128275753       10.4029050840       15.6758961471
 Pt        10.7352661248        9.1511001046       14.8248466134
 Pt        12.4104447984       10.0055048803       16.5875465344
 Pt        14.3202467217       16.1525515779       11.0126199546
 Pt        12.2902144069       16.5486853770       12.6896557172
 Pt         9.8289918704       15.8854145281       11.9177131834
 Pt        13.4979822742       12.4241884085       16.7310277192
 Pt        10.4429577996       15.9777971646       14.5433088831
 Pt        13.8936363167       15.4547886781        8.5022349040
 Pt        11.8956084757       14.5166347048       16.3101983347
 Pt        12.0382389019        9.2371075114       10.0285249417
 Pt        16.1196463211       10.4235783859       11.5399060872
 Pt        13.3117535204       11.0911608021       11.5914229051
 Pt        14.4554844058       14.7125203314       15.7278523228
 Pt         8.2718324412       11.9053878034       16.9561169643
      55
 i =        3, E =     -6609.0492843560
 Pt         9.8912063736        9.8528008062        8.3984348262
 Pt        14.0095714264        8.6408849194       11.7303123910
 Pt        11.4399588113        8.2717410776       12.4103138452
 Pt        11.1915320352       12.1418121831       10.3544977747
 Pt         9.5963939898       14.2609538747        9.8060856106
 Pt        11.8188503547       13.9047945716        8.2621821177
 Pt         9.7959338493       12.4221464852        7.7429851210
 Pt         7.9022086102       12.6141386501       14.3869951211
 Pt        12.9191292247       11.5360048007       14.2695906564
 Pt        13.2223712045       13.7219784674       11.0902562696
 Pt        14.8104650750       12.7214537612       12.8691008525
 Pt        13.2784122988        8.7998933679       14.3178905881
 Pt         8.6327190140       11.6245070977        9.9662151724
 Pt         9.8529902713        9.7814252775       17.2296065666
 Pt         8.2891634999       10.0989152051       15.0750252452
 Pt        17.1130895573       12.9674545148       11.7376388026
 Pt        14.8293998233       16.2673005066       13.5644197552
 Pt        16.5202458317       11.8312664742        9.4133931081
 Pt        10.4900001555       13.4777223541       12.4310924784
 Pt         8.1009853466       15.1749632276       13.8342319556
 Pt         9.4454265257        9.1434884310       10.8004283692
 Pt        12.8633742791       16.7327484447       15.2483706388
 Pt        12.1708044176       11.1527333362        8.1363184386
 Pt        16.7269293728       11.4351099701       14.0123389251
 Pt        15.8662085976       14.3407912479        9.8981797168
 Pt        16.7838883943       15.6539230492       11.9848445890
 Pt        11.8023013325       15.8190802089       10.1773464580
 Pt        12.6777770104       14.1114945540       13.6776470602
 Pt        10.5055004066       12.3892777230       14.7113629385
 Pt        16.0690793073       12.7343117183       16.2294299635
 Pt        15.8267050627        8.9589156869       13.6367194590
 Pt         8.1567708005       10.8131872484       12.4595507509
 Pt        10.9063759409       12.2467778893       17.2389726583
 Pt         9.2629282493       14.2282461540       16.1338864461
 Pt        10.8210086755       10.8679263780       12.6427542258
 Pt        14.3915798797       10.2790120751        9.3985431557
 Pt         7.9982460208       13.3869516649       11.8383909846
 Pt        14.1758551688       12.8037838108        8.6490293566
 Pt        16.5406739825       14.1855000309       14.1197921980
 Pt         8.8531412950        8.3691454388       13.1977820796
 Pt        14.9147252073       10.4030324674       15.6749387176
 Pt        10.7357813651        9.1680114055       14.8200550429
 Pt        12.4122221778       10.0061397030       16.5899776330
 Pt        14.3203085710       16.1541725023       11.0127120179
 Pt        12.2905561221       16.5471037446       12.6881018345
 Pt         9.8273444865       15.8859844146       11.9142851386
 Pt        13.4986140493       12.4231740891       16.7311568571
 Pt        10.4441461717       15.9719730133       14.5382475794
 Pt        13.8929039066       15.4541929074        8.5036052413
 Pt        11.8935472193       14.5130084145       16.3103854212
 Pt        12.0355308463        9.2414969743       10.0292961336
 Pt        16.1135746608       10.4281263209       11.5417971680
 Pt        13.3124999487       11.0943376789       11.5941727375
 Pt        14.4546365625       14.7103465666       15.7271777644
 Pt         8.2708225390       11.9046203236       16.9590785509
      55
 i =        4, E =     -6609.0494940680
 Pt         9.8889682369        9.8499874890        8.3976356107
 Pt        14.0062060807        8.6370981312       11.7227014290
 Pt        11.4366841369        8.2729529836       12.4079923431
 Pt        11.1927815494       12.1369909337       10.3474984951
 Pt         9.5969087740       14.2575719313        9.8013225668
 Pt        11.8165444088       13.9027734101        8.2559837353
 Pt         9.7929792485       12.4178929556        7.7416215445
 Pt         7.9050030678       12.6146596998       14.3890705637
 Pt        12.9232581297       11.5336825232       14.2684981133
 Pt        13.2200695271       13.7236275649       11.0960861434
 Pt        14.8166547414       12.7270828261       12.8729035672
 Pt        13.2773941273        8.8048808137       14.3134441620
 Pt         8.6298042273       11.6203992974        9.9667839890
 Pt         9.8520161861        9.7752796916       17.2313221064
 Pt         8.2797842578       10.1003904315       15.0799329471
 Pt        17.1227815633       12.9699800694       11.7411937627
 Pt        14.8314406975       16.2673001745       13.5652401588
 Pt        16.5167464165       11.8328695147        9.4163144093
 Pt        10.4985255020       13.4803677354       12.4255995070
 Pt         8.0957821630       15.1765810802       13.8329352664
 Pt         9.4379922833        9.1350165263       10.7996693767
 Pt        12.8607362654       16.7255909813       15.2468110271
 Pt        12.1704651480       11.1502860205        8.1252492430
 Pt        16.7326021199       11.4371347471       14.0154733105
 Pt        15.8635842602       14.3395360244        9.9057651586
 Pt        16.7893128153       15.6578223421       11.9852109707
 Pt        11.8011120584       15.8190551714       10.1734068309
 Pt        12.6828626651       14.1105417405       13.6854593561
 Pt        10.5079860429       12.3965662246       14.7098351465
 Pt        16.0715171614       12.7348922287       16.2334502343
 Pt        15.8245157300        8.9596840543       13.6335257796
 Pt         8.1594157849       10.8144701891       12.4598570502
 Pt        10.9049897851       12.2408270260       17.2403225000
 Pt         9.2572048390       14.2290381683       16.1381723555
 Pt        10.8237990535       10.8724436019       12.6343251595
 Pt        14.3869669056       10.2767047316        9.3937245424
 Pt         8.0048534726       13.3867477491       11.8392013927
 Pt        14.1710140833       12.8026778440        8.6559078667
 Pt        16.5487012588       14.1900165572       14.1243023621
 Pt         8.8546492571        8.3732522049       13.2042738242
 Pt        14.9181960761       10.4019346745       15.6766838831
 Pt        10.7366200249        9.1954825181       14.8132007244
 Pt        12.4158646990       10.0041799498       16.5970281206
 Pt        14.3204949334       16.1581705033       11.0124182567
 Pt        12.2908726325       16.5454833896       12.6845259032
 Pt         9.8235202715       15.8856793262       11.9086670662
 Pt        13.4984993915       12.4198157432       16.7335600450
 Pt        10.4457574789       15.9605084308       14.5308321227
 Pt        13.8923825456       15.4512841867        8.5068100287
 Pt        11.8900541080       14.5069743135       16.3137009900
 Pt        12.0285339483        9.2472908849       10.0285783475
 Pt        16.1063815830       10.4338629288       11.5442558706
 Pt        13.3192156202       11.0958028616       11.5955131394
 Pt        14.4542528932       14.7068855811       15.7283358219
 Pt         8.2703035905       11.9031226377       16.9656170655
      55
 i =        5, E =     -6609.0495819562
 Pt         9.8856636751        9.8470394912        8.3975907498
 Pt        14.0033638630        8.6368342615       11.7199656786
 Pt        11.4338440116        8.2769967087       12.4072531617
 Pt        11.1957853110       12.1361404875       10.3413464340
 Pt         9.5965419784       14.2566503087        9.7975097971
 Pt        11.8152140290       13.9005919915        8.2502724272
 Pt         9.7902577730       12.4147520965        7.7412553647
 Pt         7.9047958553       12.6143651231       14.3907818837
 Pt        12.9259694689       11.5343647544       14.2686776199
 Pt        13.2199054348       13.7256091113       11.0990638455
 Pt        14.8210379008       12.7316728710       12.8739887965
 Pt        13.2762677088        8.8084772732       14.3116423445
 Pt         8.6294100147       11.6192626104        9.9670673746
 Pt         9.8511849087        9.7725375647       17.2298908102
 Pt         8.2762817437       10.1013315826       15.0832510447
 Pt        17.1288584589       12.9711656258       11.7433641957
 Pt        14.8320501975       16.2657466092       13.5660014702
 Pt        16.5133776314       11.8343708769        9.4193857437
 Pt        10.5053159151       13.4819561650       12.4198801692
 Pt         8.0944941538       15.1758127670       13.8327977884
 Pt         9.4309948040        9.1315560392       10.7993775671
 Pt        12.8586927485       16.7215201523       15.2457993771
 Pt        12.1693592883       11.1479808772        8.1186125930
 Pt        16.7340870685       11.4383380069       14.0167015298
 Pt        15.8622604988       14.3388603806        9.9107722570
 Pt        16.7899911500       15.6597212883       11.9868467716
 Pt        11.8007543636       15.8177331516       10.1708087233
 Pt        12.6850520961       14.1108312578       13.6890312117
 Pt        10.5101502061       12.4019480309       14.7061046635
 Pt        16.0720122254       12.7349012073       16.2346166737
 Pt        15.8225949754        8.9615194501       13.6316905131
 Pt         8.1602919597       10.8142538973       12.4614321942
 Pt        10.9044116047       12.2370405708       17.2380712369
 Pt         9.2557102613       14.2281551096       16.1411477480
 Pt        10.8274099729       10.8763861621       12.6297307104
 Pt        14.3849147993       10.2747002821        9.3906283690
 Pt         8.0088315935       13.3866398556       11.8403897560
 Pt        14.1699794784       12.8023392745        8.6586495278
 Pt        16.5529108783       14.1927460973       14.1277623542
 Pt         8.8553998240        8.3756910336       13.2087654407
 Pt        14.9203240570       10.4005304079       15.6789021592
 Pt        10.7372628444        9.2087390927       14.8119134035
 Pt        12.4172110081       10.0002671291       16.6006639338
 Pt        14.3203093957       16.1605720770       11.0127185864
 Pt        12.2897559973       16.5447176979       12.6835131712
 Pt         9.8214844879       15.8846178161       11.9047060531
 Pt        13.4986118071       12.4166084866       16.7357796846
 Pt        10.4452730547       15.9525935375       14.5277153930
 Pt        13.8925142288       15.4482201649        8.5081846812
 Pt        11.8893092686       14.5057678214       16.3183970868
 Pt        12.0240917696        9.2490666482       10.0272419598
 Pt        16.1055289808       10.4350718960       11.5442724927
 Pt        13.3236274853       11.0989269636       11.5966594726
 Pt        14.4544578957       14.7052770142       15.7303944625
 Pt         8.2699487876       11.9024371486       16.9690856819
      55
 i =        6, E =     -6609.0496568680
 Pt         9.8814250108        9.8441762365        8.3985019772
 Pt        13.9993727867        8.6400623434       11.7186621691
 Pt        11.4308168963        8.2829490054       12.4063252098
 Pt        11.2002623640       12.1355133659       10.3335848015
 Pt         9.5957160128       14.2558905118        9.7923593432
 Pt        11.8139411048       13.8978887410        8.2428084443
 Pt         9.7873032033       12.4111584231        7.7401705055
 Pt         7.9046770981       12.6137701728       14.3925548466
 Pt        12.9296877203       11.5366069618       14.2691797321
 Pt        13.2211077582       13.7280902281       11.1011992863
 Pt        14.8250978198       12.7379739751       12.8745325645
 Pt        13.2749961309        8.8125578810       14.3098280962
 Pt         8.6314385434       11.6190325299        9.9691236168
 Pt         9.8500115333        9.7699217292       17.2295693634
 Pt         8.2741230087       10.1024974647       15.0860857790
 Pt        17.1347226315       12.9716536052       11.7458438748
 Pt        14.8297454065       16.2623727720       13.5673823215
 Pt        16.5111372504       11.8355125779        9.4219465341
 Pt        10.5123648455       13.4842660804       12.4112505003
 Pt         8.0936385835       15.1735420205       13.8336639415
 Pt         9.4237548688        9.1295903217       10.8003531396
 Pt        12.8564383946       16.7190326660       15.2460189194
 Pt        12.1680187025       11.1442441634        8.1120223792
 Pt        16.7333057028       11.4393804934       14.0168697119
 Pt        15.8602820216       14.3377784999        9.9164259270
 Pt        16.7895314862       15.6614602626       11.9895534592
 Pt        11.8005632377       15.8151168700       10.1679670887
 Pt        12.6873655673       14.1129751286       13.6930906175
 Pt        10.5116714530       12.4087566981       14.7000815053
 Pt        16.0719403469       12.7337503470       16.2360094776
 Pt        15.8206080077        8.9631561781       13.6308027732
 Pt         8.1627516369       10.8146204713       12.4636642981
 Pt        10.9043062071       12.2329596327       17.2325958226
 Pt         9.2563951306       14.2258642815       16.1443163622
 Pt        10.8309914041       10.8810206002       12.6244326038
 Pt        14.3821782510       10.2732592360        9.3892324611
 Pt         8.0146851330       13.3859961399       11.8424326731
 Pt        14.1678348393       12.8004756884        8.6603476780
 Pt        16.5561632979       14.1946426466       14.1317599256
 Pt         8.8555061932        8.3776062306       13.2128326494
 Pt        14.9222192256       10.3984866366       15.6816380547
 Pt        10.7380922165        9.2183753066       14.8110642827
 Pt        12.4192498844        9.9956096482       16.6051874599
 Pt        14.3192380563       16.1639199948       11.0129851281
 Pt        12.2874159090       16.5441710175       12.6818256596
 Pt         9.8187802780       15.8840905784       11.9013162231
 Pt        13.4983944938       12.4130610543       16.7372726173
 Pt        10.4465761189       15.9437580734       14.5253976252
 Pt        13.8928409991       15.4447310461        8.5090664922
 Pt        11.8895522091       14.5050409562       16.3248737207
 Pt        12.0190310166        9.2512826176       10.0261601707
 Pt        16.1060980823       10.4350156146       11.5439269474
 Pt        13.3287828759       11.1023896051       11.5963709269
 Pt        14.4541808816       14.7037523959       15.7337492153
 Pt         8.2685164408       11.9021958328       16.9723486090
      55
 i =        7, E =     -6609.0497074140
 Pt         9.8778278134        9.8423902121        8.3994570169
 Pt        13.9967673487        8.6440026561       11.7189507234
 Pt        11.4289759324        8.2863580243       12.4066341350
 Pt        11.2047029805       12.1356733885       10.3267597595
 Pt         9.5952230578       14.2558628471        9.7884875024
 Pt        11.8129399171       13.8960221206        8.2364682311
 Pt         9.7853058743       12.4086467588        7.7384494596
 Pt         7.9047626781       12.6133436215       14.3943240366
 Pt        12.9320404822       11.5389887883       14.2699370411
 Pt        13.2221450628       13.7313866520       11.1018769945
 Pt        14.8272477561       12.7431704619       12.8742638795
 Pt        13.2737816719        8.8155675515       14.3089676794
 Pt         8.6346302422       11.6200787668        9.9711641079
 Pt         9.8493678021        9.7686341245       17.2302269162
 Pt         8.2749208840       10.1028707076       15.0882752450
 Pt        17.1373684698       12.9715127833       11.7471549710
 Pt        14.8256086677       16.2581955396       13.5683005657
 Pt        16.5099967138       11.8358195601        9.4228775172
 Pt        10.5194593240       13.4868709843       12.4025760988
 Pt         8.0946762320       15.1719260793       13.8356532385
 Pt         9.4195881849        9.1288564795       10.8015239722
 Pt        12.8549619550       16.7189164963       15.2471234377
 Pt        12.1674113035       11.1404329863        8.1066799670
 Pt        16.7304220171       11.4400146888       14.0162317655
 Pt        15.8570268699       14.3356401884        9.9209803814
 Pt        16.7871010135       15.6614937992       11.9923271313
 Pt        11.7996458286       15.8122554554       10.1659180707
 Pt        12.6888362948       14.1152563083       13.6956747572
 Pt        10.5129797846       12.4145192453       14.6935146408
 Pt        16.0719060092       12.7318408244       16.2375903562
 Pt        15.8195627217        8.9630365709       13.6307345550
 Pt         8.1654629069       10.8152041552       12.4657411781
 Pt        10.9037597662       12.2290071445       17.2262744378
 Pt         9.2588053454       14.2229383424       16.1466673542
 Pt        10.8344386490       10.8847236965       12.6214010878
 Pt        14.3812553944       10.2722426431        9.3889523416
 Pt         8.0194766084       13.3864601143       11.8443760600
 Pt        14.1668194890       12.7990800159        8.6608782480
 Pt        16.5570887049       14.1949823093       14.1350676646
 Pt         8.8549823214        8.3780523733       13.2159743297
 Pt        14.9227941067       10.3964351180       15.6835898392
 Pt        10.7383563817        9.2220179223       14.8120099901
 Pt        12.4199389561        9.9920072272       16.6078595819
 Pt        14.3184172563       16.1668062598       11.0120623292
 Pt        12.2846673983       16.5454845979       12.6802853009
 Pt         9.8157433198       15.8845822585       11.8991504612
 Pt        13.4973204994       12.4103088509       16.7370976380
 Pt        10.4486128545       15.9368717490       14.5244315060
 Pt        13.8927818260       15.4416805901        8.5090775607
 Pt        11.8903402832       14.5053880864       16.3306206688
 Pt        12.0161421844        9.2536264553       10.0261647651
 Pt        16.1074552803       10.4343700457       11.5437783891
 Pt        13.3315238983       11.1068407994       11.5971631261
 Pt        14.4547775671       14.7033869139       15.7377525194
 Pt         8.2670200011       11.9017739516       16.9737870846
      55
 i =        8, E =     -6609.0497457892
 Pt         9.8756902184        9.8416994965        8.4007460061
 Pt        13.9952771065        8.6480359817       11.7199762189
 Pt        11.4280465024        8.2875330975       12.4072671825
 Pt        11.2088643154       12.1346819145       10.3202780615
 Pt         9.5949966799       14.2562458074        9.7853094169
 Pt        11.8121579955       13.8945554756        8.2310881052
 Pt         9.7843591440       12.4068921016        7.7363476907
 Pt         7.9053272773       12.6129493944       14.3953845389
 Pt        12.9335536501       11.5410664904       14.2700767356
 Pt        13.2220567303       13.7347361384       11.1028156404
 Pt        14.8271258755       12.7481642338       12.8741803452
 Pt        13.2727237346        8.8173270332       14.3085151418
 Pt         8.6379801296       11.6215997647        9.9730446209
 Pt         9.8487318913        9.7667247216       17.2324181258
 Pt         8.2763390725       10.1029611752       15.0896795761
 Pt        17.1385646683       12.9707456321       11.7480904913
 Pt        14.8205817987       16.2533210679       13.5681509665
 Pt        16.5098590866       11.8351046647        9.4228975204
 Pt        10.5264970329       13.4894817920       12.3940024600
 Pt         8.0961355427       15.1715449262       13.8388728221
 Pt         9.4184632961        9.1284605706       10.8030635605
 Pt        12.8544527497       16.7190463766       15.2482423586
 Pt        12.1675840705       11.1366930758        8.1017687733
 Pt        16.7267702787       11.4396487813       14.0159233095
 Pt        15.8526660414       14.3330251299        9.9247362707
 Pt        16.7836148246       15.6605589480       11.9950502197
 Pt        11.7980614986       15.8107185797       10.1641287378
 Pt        12.6907948549       14.1192583610       13.6985179379
 Pt        10.5142577231       12.4201870570       14.6864472879
 Pt        16.0714811256       12.7296092250       16.2396282107
 Pt        15.8191490465        8.9619992434       13.6310021365
 Pt         8.1689602343       10.8159482290       12.4673273811
 Pt        10.9031586042       12.2260426995       17.2200698840
 Pt         9.2612354110       14.2207091547       16.1487093621
 Pt        10.8368407329       10.8867216052       12.6187276823
 Pt        14.3806513842       10.2718758315        9.3900616003
 Pt         8.0246741144       13.3879727930       11.8467113437
 Pt        14.1649539328       12.7968948552        8.6601590636
 Pt        16.5568117747       14.1940089312       14.1385572323
 Pt         8.8543577211        8.3779742369       13.2180039779
 Pt        14.9228397680       10.3943600817       15.6848026199
 Pt        10.7387447770        9.2227528407       14.8129423913
 Pt        12.4204426481        9.9892210575       16.6099811926
 Pt        14.3166849097       16.1706722591       11.0107303925
 Pt        12.2819535177       16.5479079938       12.6787127086
 Pt         9.8127769181       15.8858958097       11.8978305558
 Pt        13.4966374832       12.4084346207       16.7360040704
 Pt        10.4516277933       15.9315532242       14.5235157029
 Pt        13.8916486069       15.4394371866        8.5079831433
 Pt        11.8915465699       14.5060082119       16.3355117852
 Pt        12.0144967953        9.2568525679       10.0278274979
 Pt        16.1083375058       10.4335656483       11.5439225752
 Pt        13.3337285165       11.1104320684       11.5973903331
 Pt        14.4558910517       14.7039156030       15.7425479816
 Pt         8.2650334795       11.9010149897       16.9749284163
      55
 i =        9, E =     -6609.0497724751
 Pt         9.8752844478        9.8418964162        8.4017189450
 Pt        13.9952672617        8.6499498251       11.7209801327
 Pt        11.4283090134        8.2859561413       12.4084895753
 Pt        11.2112382865       12.1325965629       10.3153100288
 Pt         9.5954606759       14.2567742642        9.7835726899
 Pt        11.8115468611       13.8938948036        8.2283551184
 Pt         9.7841929285       12.4061429918        7.7345748718
 Pt         7.9065344110       12.6129946367       14.3962332050
 Pt        12.9341791724       11.5420750133       14.2701896854
 Pt        13.2207199116       13.7380060686       11.1031363485
 Pt        14.8263563183       12.7512630265       12.8742647927
 Pt        13.2721217310        8.8176477030       14.3086844011
 Pt         8.6399187481       11.6232681165        9.9741565696
 Pt         9.8485118295        9.7653460375       17.2341418546