     132
 i =        1, E =     -3787.5113237455
  S         3.9551872884        5.8046188900        3.8533921377
  S         3.9551872823        5.8046188884        7.2766078623
 Mo         4.0545716071        7.4556394796        5.5649999987
  S         5.5166391492        8.5234494617        3.9692079093
  S         5.5166391560        8.5234494579        7.1607920820
 Mo         5.7501806667       10.2977315951        5.5649999975
  S         7.1614222101       11.3228324779        3.9230998461
  S         7.1614222152       11.3228324866        7.2069001498
 Mo         7.3829969134       13.0336775565        5.5649999957
  S         8.7453310486       14.0662572187        3.9221699167
  S         8.7453310527       14.0662572208        7.2078300778
 Mo         8.9690091488       15.7670447596        5.5649999954
  S        10.3300274750       16.8110288312        3.9221812691
  S        10.3300274784       16.8110288318        7.2078187252
 Mo        10.5430894697       18.5072769181        5.5649999955
  S        11.9139316066       19.5543810250        3.9230970573
  S        11.9139316085       19.5543810234        7.2069029367
 Mo        12.0962432482       21.2892574934        5.5649999961
  S        13.5157280523       22.3785773490        3.9691922287
  S        13.5157280532       22.3785773481        7.1608077670
 Mo        13.7094288620       24.1785654980        5.5649999995
  S        15.0898819582       25.0906593369        3.8532027151
  S        15.0898819569       25.0906593415        7.2767972869
 Mo         5.4352586496        5.0643306698        5.5650000001
  S         7.0907068543        5.7973515687        3.9691879926
  S         7.0907068609        5.7973515691        7.1608120082
 Mo         7.1605318682        7.6549284523        5.5649999989
  S         8.7442488990        8.5694137388        3.9743032206
  S         8.7442488976        8.5694137411        7.1556967816
 Mo         8.7579501796       10.3924463516        5.5650000012
  S        10.3394579324       11.3169721346        3.9852488297
  S        10.3394579384       11.3169721331        7.1447511731
 Mo        10.3440365206       13.1419574861        5.5650000013
  S        11.9232529810       14.0613694732        3.9868858347
  S        11.9232529862       14.0613694727        7.1431141677
 Mo        11.9299129366       15.8887056695        5.5650000012
  S        13.5080667985       16.8051671643        3.9852360340
  S        13.5080668044       16.8051671644        7.1447639680
 Mo        13.5180197279       18.6370313660        5.5650000012
  S        15.0899111503       19.5604621391        3.9742773544
  S        15.0899111522       19.5604621406        7.1557226510
 Mo        15.0899661266       21.3892920812        5.5650000002
  S        16.6639561754       22.3784082704        3.9692335065
  S        16.6639561794       22.3784082691        7.1607664932
 Mo        16.4709480592       24.1785485698        5.5649999994
 Mo         8.7442103219        5.1120195796        5.5649999984
  S        10.3375034250        5.8222610326        3.9231136900
  S        10.3375034281        5.8222610296        7.2068863138
 Mo        10.3298945979        7.6696444201        5.5650000024
  S        11.9212911668        8.5771505702        3.9853037481
  S        11.9212911669        8.5771505758        7.1446962591
 Mo        11.9192388122       10.4024977636        5.5650000002
  S        13.5057476059       11.3184896475        3.9985002920
  S        13.5057476052       11.3184896503        7.1314997173
 Mo        13.5038753627       13.1487837135        5.5650000010
  S        15.0899013226       14.0623219615        3.9985095455
  S        15.0899013213       14.0623219658        7.1314904634
 Mo        15.0899476907       15.8942847781        5.5650000012
  S        16.6717401094       16.8051800456        3.9852907805
  S        16.6717401198       16.8051800475        7.1447092229
 Mo        16.6619075227       18.6370675430        5.5650000014
  S        18.2657038988       19.5541223126        3.9231553485
  S        18.2657039019       19.5541223147        7.2068446550
 Mo        18.0841422866       21.2893225746        5.5649999990
 Mo        11.9298944017        5.1576984512        5.5649999991
  S        13.5052687781        5.8223032423        3.9222142178
  S        13.5052687739        5.8223032550        7.2077857722
 Mo        13.5041368683        7.6685573810        5.5649999986
  S        15.0898856594        8.5765700461        3.9868935706
  S        15.0898856574        8.5765700602        7.1431064252
 Mo        15.0899481817       10.4016282365        5.5649999980
  S        16.6740496655       11.3184908192        3.9985028965
  S        16.6740496597       11.3184908272        7.1314970986
 Mo        16.6760271337       13.1487823359        5.5649999987
  S        18.2565475910       14.0613823669        3.9869363710
  S        18.2565475855       14.0613823693        7.1430636255
 Mo        18.2500095512       15.8887332213        5.5649999980
  S        19.8496011756       16.8107565231        3.9222441405
  S        19.8496011719       16.8107565202        7.2077558556
 Mo        19.6372862585       18.5074221368        5.5649999979
 Mo        15.0900803043        5.1644792350        5.5650000009
  S        16.6746163758        5.8222919728        3.9222102550
  S        16.6746163714        5.8222919774        7.2077897466
 Mo        16.6757308177        7.6685593172        5.5650000011
  S        18.2584847729        8.5771534788        3.9852973651
  S        18.2584847703        8.5771534864        7.1447026370
 Mo        18.2606596582       10.4024927414        5.5650000002
  S        19.8403453608       11.3169827310        3.9853017045
  S        19.8403453501       11.3169827325        7.1446983044
 Mo        19.8358828780       13.1419916819        5.5650000023
  S        21.4343069603       14.0659778696        3.9222360060
  S        21.4343069631       14.0659778723        7.2077639989
 Mo        21.2113644642       15.7671972341        5.5649999999
 Mo        18.2502576434        5.1577163152        5.5650000000
  S        19.8423533616        5.8222509375        3.9230919906
  S        19.8423533573        5.8222509495        7.2069080044
 Mo        19.8499703267        7.6696386215        5.5649999976
  S        21.4355396473        8.5694262752        3.9743622082
  S        21.4355396286        8.5694262869        7.1556377892
 Mo        21.4219891138       10.3924857401        5.5649999979
  S        23.0182029983       11.3225677010        3.9231420388
  S        23.0182029899       11.3225677032        7.2068579562
 Mo        22.7973778359       13.0338350959        5.5650000012
 Mo        21.4359572838        5.1119994032        5.5650000008
  S        23.0891277998        5.7973480585        3.9691734473
  S        23.0891278005        5.7973480604        7.1608265491
 Mo        23.0194332428        7.6549255049        5.5650000016
  S        24.6630135765        8.5232974835        3.9691549782
  S        24.6630135766        8.5232974850        7.1608450183
 Mo        24.4301672325       10.2978855986        5.5650000017
 Mo        24.7448631781        5.0643718979        5.5650000021
  S        26.2243833966        5.8046233842        3.8533641161
  S        26.2243833978        5.8046233858        7.2766358834
 Mo        26.1254448814        7.4557304562        5.5649999996
  S         7.0938526377        3.7932022353        5.5650000041
  S        10.3461670397        3.7696214560        5.5650000005
  S        13.5110260107        3.7593972657        5.5649999981
  S        16.6684780516        3.7593998573        5.5650000019
  S        19.8333707797        3.7696560761        5.5650000023
  S        23.0857404182        3.7932377410        5.5649999959
  S         3.7833597937        9.5275580431        5.5650000032
  S         5.3892491992       12.3562837890        5.5650000018
  S         6.9626199099       15.1023067676        5.5650000038
  S         8.5413014474       17.8366146120        5.5650000040
  S        10.1328873872       20.5722660774        5.5650000030
  S        11.7793619528       23.3773650098        5.5650000052
  S        26.3970028150        9.5277462083        5.5649999979
  S        24.7912192840       12.3565542979        5.5649999968
  S        23.2178657971       15.1025723748        5.5650000009
  S        21.6391879369       17.8368728569        5.5650000028
  S        20.0476442895       20.5724989605        5.5650000019
  S        18.4011018833       23.3774778605        5.5650000037
     132
 i =        2, E =     -3788.4891803773
  S         3.9515317280        5.8023414045        3.9393850303
  S         3.9515317179        5.8023414076        7.1906149655
 Mo         4.0085776862        7.5098330456        5.5650000008
  S         5.5721369933        8.5107276053        3.9902668947
  S         5.5721369949        8.5107276035        7.1397331042
 Mo         5.7414718426       10.3544403717        5.5650000008
  S         7.2178987288       11.2747832885        3.9310642576
  S         7.2178987281       11.2747832940        7.1989357394
 Mo         7.3799843914       13.0706752618        5.5649999961
  S         8.8174432867       14.0302648985        3.9213748305
  S         8.8174432888       14.0302648926        7.2086251565
 Mo         8.9506542193       15.7775622476        5.5649999978
  S        10.3972523919       16.7666080680        3.9213755969
  S        10.3972523911       16.7666080580        7.2086243908
 Mo        10.5095835864       18.4913334843        5.5649999960
  S        11.9838065819       19.5296152527        3.9310525016
  S        11.9838065785       19.5296152411        7.1989474889
 Mo        12.0428309838       21.2686054545        5.5649999986
  S        13.5546487004       22.3369829474        3.9901152826
  S        13.5546487009       22.3369829429        7.1398847152
 Mo        13.6394569024       24.1910208234        5.5649999995
  S        15.0900470253       25.0950626458        3.9396176797
  S        15.0900470235       25.0950626463        7.1903823177
 Mo         5.4594056833        4.9975300579        5.5650000024
  S         7.1074991249        5.8516553738        3.9901658616
  S         7.1074991303        5.8516553767        7.1398341376
 Mo         7.1565134425        7.6526928516        5.5649999981
  S         8.7309802981        8.5617288983        4.0039031635
  S         8.7309803060        8.5617288712        7.1260968370
 Mo         8.8129314475       10.3566105774        5.5650000053
  S        10.3428856514       11.3038249866        3.9972757555
  S        10.3428856647       11.3038249634        7.1327242466
 Mo        10.4261605975       13.0964891993        5.5650000020
  S        11.9344326645       14.0549215969        3.9899678060
  S        11.9344326751       14.0549215709        7.1400321957
 Mo        12.0102488000       15.8403062731        5.5650000020
  S        13.5211990555       16.8087860073        3.9972868600
  S        13.5211990623       16.8087859863        7.1327131385
 Mo        13.5764224488       18.6073367590        5.5650000035
  S        15.0899364123       19.5757399640        4.0038910848
  S        15.0899364306       19.5757399451        7.1261089111
 Mo        15.0899333989       21.3936703233        5.5650000014
  S        16.6252433560       22.3368283272        3.9900055547
  S        16.6252433537       22.3368283279        7.1399944453
 Mo        16.5406878074       24.1906156575        5.5650000007
 Mo         8.7888916156        5.0763211352        5.5650000018
  S        10.3240840347        5.8950634670        3.9309356982
  S        10.3240840425        5.8950634540        7.1990643138
 Mo        10.3264006532        7.7351228827        5.5650000002
  S        11.9116566910        8.5866975964        3.9973032901
  S        11.9116566924        8.5866975621        7.1326967136
 Mo        11.9261604078       10.4064810257        5.5650000045
  S        13.5037784544       11.3173472920        4.0026964646
  S        13.5037784462       11.3173472834        7.1273035525
 Mo        13.5114705540       13.1444031159        5.5650000053
  S        15.0899190809       14.0646150799        4.0026936727
  S        15.0899190834       14.0646150904        7.1273063517
 Mo        15.0899137159       15.8862620553        5.5650000041
  S        16.6586482298       16.8087707057        3.9972873146
  S        16.6586482403       16.8087707250        7.1327126967
 Mo        16.6035108401       18.6073801669        5.5649999973
  S        18.1960047748       19.5294960684        3.9309701433
  S        18.1960047758       19.5294960767        7.1990298626
 Mo        18.1372939081       21.2684104278        5.5650000011
 Mo        11.9600609948        5.1369261793        5.5649999955
  S        13.5101108465        5.9025358969        3.9213971480
  S        13.5101108445        5.9025359202        7.2086028406
 Mo        13.5057524805        7.7620970302        5.5649999941
  S        15.0899210780        8.5894629540        3.9900142800
  S        15.0899210800        8.5894629751        7.1399856974
 Mo        15.0899024585       10.4104538671        5.5649999946
  S        16.6760634466       11.3173423582        4.0026947869
  S        16.6760634429       11.3173423693        7.1273051879
 Mo        16.6683570705       13.1444112926        5.5649999960
  S        18.2454161859       14.0549044972        3.9899748980
  S        18.2454161844       14.0549044961        7.1400250818
 Mo        18.1696935691       15.8403724113        5.5649999954
  S        19.7825457023       16.7664829242        3.9213495133
  S        19.7825456992       16.7664829023        7.2086504774
 Mo        19.6704632333       18.4912526531        5.5650000040
 Mo        15.0900638708        5.1435725721        5.5649999997
  S        16.6698761319        5.9025298608        3.9213978947
  S        16.6698761376        5.9025298581        7.2086021167
 Mo        16.6739952382        7.7621005086        5.5649999992
  S        18.2681789375        8.5866914963        3.9972961134
  S        18.2681789410        8.5866914726        7.1327038811
 Mo        18.2536516842       10.4064834301        5.5650000059
  S        19.8369622353       11.3038141312        3.9972721898
  S        19.8369622485       11.3038141287        7.1327278159
 Mo        19.7537918742       13.0965355984        5.5650000002
  S        21.3623580213       14.0301274332        3.9213541314
  S        21.3623580236       14.0301274364        7.2086458757
 Mo        21.2293734579       15.7775232158        5.5649999993
 Mo        18.2200436100        5.1369223606        5.5649999998
  S        19.8558933450        5.8950327468        3.9309530648
  S        19.8558933395        5.8950327742        7.1990469228
 Mo        19.8533601501        7.7351399853        5.5649999916
  S        21.4488435875        8.5617221796        4.0038608682
  S        21.4488435991        8.5617221758        7.1261391188
 Mo        21.3669679023       10.3566195943        5.5649999976
  S        22.9619265099       11.2746471509        3.9310365381
  S        22.9619265025       11.2746471484        7.1989634615
 Mo        22.8000234673       13.0706824377        5.5650000000
 Mo        21.3912032085        5.0763157216        5.5650000002
  S        23.0724091858        5.8516149132        3.9901384147
  S        23.0724091883        5.8516149124        7.1398615909
 Mo        23.0232551635        7.6526863765        5.5649999978
  S        24.6076289788        8.5107469213        3.9901087076
  S        24.6076289824        8.5107469209        7.1398912954
 Mo        24.4385284763       10.3545179179        5.5650000009
 Mo        24.7205593104        4.9974409641        5.5650000011
  S        26.2282589206        5.8023770913        3.9393876557
  S        26.2282589254        5.8023770944        7.1906123434
 Mo        26.1710464477        7.5100935538        5.5649999983
  S         7.1218262910        3.5786516548        5.5650000073
  S        10.3848687305        3.5282051910        5.5650000068
  S        13.5257690463        3.5094063505        5.5650000082
  S        16.6536170083        3.5093998573        5.5650000111
  S        19.7945537118        3.5282355306        5.5650000137
  S        23.0575968793        3.5786297143        5.5650000007
  S         3.6114528454        9.6589944632        5.5650000007
  S         5.1995382468       12.5107710048        5.5649999969
  S         6.7531145213       15.2405156329        5.5650000000
  S         8.3168294460       17.9488177144        5.5650000006
  S         9.9043281261       20.6592657341        5.5649999990
  S        11.5794107737       23.4605742477        5.5650000061
  S        26.5688232682        9.6593472838        5.5650000026
  S        24.9808226882       12.5110503460        5.5650000018
  S        23.4272629207       15.2407382197        5.5650000048
  S        21.8635636008       17.9490086634        5.5650000061
  S        20.2761520358       20.6593993099        5.5650000026
  S        18.6010242623       23.4605357878        5.5650000042
     132
 i =        3, E =     -3788.8747890304
  S         3.9377188770        5.7943838698        4.0444698950
  S         3.9377188607        5.7943838717        7.0855301007
 Mo         4.1030333756        7.6025528146        5.5649999998
  S         5.6050291704        8.5538294102        3.9801867999
  S         5.6050291794        8.5538294046        7.1498131911
 Mo         5.7227753725       10.4298969297        5.5649999987
  S         7.2581497352       11.2666507468        3.9445254358
  S         7.2581497369       11.2666507550        7.1854745612
 Mo         7.3435097881       13.1137528602        5.5649999945
  S         8.8636296690       14.0053693836        3.9349499808
  S         8.8636296768       14.0053693633        7.1950499993
 Mo         8.9043001940       15.8042682052        5.5649999942
  S        10.4419136877       16.7390180149        3.9349748292
  S        10.4419136993       16.7390179817        7.1950251467
 Mo        10.4539581848       18.5011697487        5.5649999982
  S        12.0110641057       19.4988863036        3.9447653950
  S        12.0110641112       19.4988862744        7.1852345869
 Mo        11.9679256917       21.2474283033        5.5650000001
  S        13.5341069403       22.2871826844        3.9803527801
  S        13.5341069435       22.2871826684        7.1496472109
 Mo        13.6060279674       24.0643863187        5.5650000011
  S        15.0901526396       25.1090094260        4.0447158612
  S        15.0901526395       25.1090094205        7.0852841343
 Mo         5.5872410229        5.0327683181        5.5650000032
  S         7.1612163008        5.8585782704        3.9799439570
  S         7.1612162967        5.8585782619        7.1500560563
 Mo         7.1791512813        7.6656665938        5.5650000015
  S         8.7514210699        8.5735503844        3.9790460073
  S         8.7514210674        8.5735503647        7.1509540076
 Mo         8.7981363415       10.3664579123        5.5650000065
  S        10.3860682695       11.2820697317        3.9876964279
  S        10.3860682437       11.2820697021        7.1423036078
 Mo        10.4189431493       13.0971832323        5.5650000075
  S        11.9882433199       14.0238508061        3.9877670241
  S        11.9882433098       14.0238507979        7.1422329962
 Mo        12.0061049218       15.8462091301        5.5650000031
  S        13.5615646975       16.7822515141        3.9876908739
  S        13.5615647202       16.7822515094        7.1423091369
 Mo        13.5606331764       18.6151727896        5.5649999970
  S        15.0899248292       19.5522720259        3.9791348305
  S        15.0899248334       19.5522719994        7.1508651636
 Mo        15.0900103879       21.3679718290        5.5650000011
  S        16.6458691930       22.2868912539        3.9801120022
  S        16.6458691950       22.2868912419        7.1498879983
 Mo        16.5741447437       24.0636607184        5.5650000000
 Mo         8.8448226877        5.0225659085        5.5650000028
  S        10.3369871738        5.9338387062        3.9443096889
  S        10.3369871784        5.9338387191        7.1856903004
 Mo        10.3276302230        7.7176067646        5.5649999954
  S        11.9144122083        8.6348599562        3.9876471949
  S        11.9144122020        8.6348599709        7.1423527923
 Mo        11.9366826866       10.4124833425        5.5650000017
  S        13.5124712364       11.3223614009        3.9990278937
  S        13.5124712262       11.3223613943        7.1309721100
 Mo        13.5332174709       13.1318519683        5.5650000036
  S        15.0899276819       14.0545770514        3.9990228820
  S        15.0899276460       14.0545770411        7.1309771453
 Mo        15.0899364497       15.8741712864        5.5650000046
  S        16.6183259180       16.7822764013        3.9876567063
  S        16.6183259132       16.7822764053        7.1423433008
 Mo        16.6192016946       18.6150728610        5.5649999999
  S        18.1688740109       19.4988398569        3.9446752905
  S        18.1688740224       19.4988398812        7.1853247365
 Mo        18.2120001021       21.2473815103        5.5650000000
 Mo        11.9787554819        5.0841390956        5.5650000028
  S        13.5115714125        5.9547780579        3.9350882590
  S        13.5115714097        5.9547780753        7.1949117313
 Mo        13.5028420207        7.7559473859        5.5649999936
  S        15.0898845368        8.6514084878        3.9877184610
  S        15.0898845327        8.6514085196        7.1422815010
 Mo        15.0899201135       10.4354496802        5.5649999893
  S        16.6673674819       11.3223646824        3.9990157898
  S        16.6673674899       11.3223646991        7.1309841860
 Mo        16.6466310510       13.1318414811        5.5649999983
  S        18.1916448500       14.0238785593        3.9877257021
  S        18.1916448388       14.0238785761        7.1422742762
 Mo        18.1736935670       15.8460699128        5.5649999902
  S        19.7379968348       16.7389757782        3.9349572572
  S        19.7379968141       16.7389757422        7.1950427202
 Mo        19.7260482069       18.5012721343        5.5650000098
 Mo        15.0900291569        5.0904280204        5.5650000047
  S        16.6684245137        5.9547662480        3.9350857500
  S        16.6684245201        5.9547662697        7.1949142453
 Mo        16.6771356407        7.7559367977        5.5649999921
  S        18.2653696483        8.6348642207        3.9876383747
  S        18.2653696413        8.6348642208        7.1423616294
 Mo        18.2431747395       10.4124792152        5.5650000004
  S        19.7938148758       11.2820756677        3.9876504512
  S        19.7938148932       11.2820756749        7.1423495658
 Mo        19.7608581977       13.0970451396        5.5650000023
  S        21.3162718467       14.0053415452        3.9349369166
  S        21.3162718492       14.0053415732        7.1950631023
 Mo        21.2757526979       15.8042958129        5.5649999949
 Mo        18.2012886885        5.0841341653        5.5650000041
  S        19.8429981041        5.9337993555        3.9443286961
  S        19.8429981138        5.9337993859        7.1856712886
 Mo        19.8523236586        7.7175796692        5.5649999911
  S        21.4283706959        8.5735143301        3.9790379288
  S        21.4283706887        8.5735143489        7.1509620436
 Mo        21.3816996201       10.3663439268        5.5649999873
  S        22.9217975791       11.2666051009        3.9444947534
  S        22.9217975480       11.2666050774        7.1855052285
 Mo        22.8366001330       13.1136876529        5.5650000105
 Mo        21.3353073934        5.0225282874        5.5650000001
  S        23.0187821867        5.8585109795        3.9799638959
  S        23.0187821837        5.8585109941        7.1500360980
 Mo        23.0007259814        7.6657007071        5.5649999996
  S        24.5746732037        8.5538935292        3.9799454685
  S        24.5746732252        8.5538935320        7.1500545443
 Mo        24.4573042368       10.4296760419        5.5650000025
 Mo        24.5925450290        5.0328022874        5.5650000011
  S        26.2421380282        5.7945038315        4.0446532019
  S        26.2421380355        5.7945038354        7.0853467975
 Mo        26.0760851776        7.6031004845        5.5649999974
  S         7.1694443925        3.3287484894        5.5650000084
  S        10.4128253290        3.2940465397        5.5650000096
  S        13.5309898477        3.3031690350        5.5650000102
  S        16.6483075878        3.3031749378        5.5650000162
  S        19.7665380869        3.2941496434        5.5650000177
  S        23.0098931478        3.3286297143        5.5650000033
  S         3.4187619619        9.8249331179        5.5650000025
  S         5.0108452764       12.6521130354        5.5649999982
  S         6.5771220732       15.3483253810        5.5650000047
  S         8.1353024600       18.0472816915        5.5650000055
  S         9.6875366269       20.7518644331        5.5650000001
  S        11.3396797664       23.5445503191        5.5650000070
  S        26.7617306462        9.8254044380        5.5650000008
  S        25.1693332359       12.6520204019        5.5650000044
  S        23.6030049601       15.3483672084        5.5650000053
  S        22.0447878865       18.0474075866        5.5650000084
  S        20.4925864865       20.7520615463        5.5650000036
  S        18.8408551810       23.5445847296        5.5650000044
     132
 i =        4, E =     -3788.9628184575
  S         3.9985498778        5.8292476880        4.1124871868
  S         3.9985498600        5.8292476903        7.0175128068
 Mo         4.1268869342        7.7051663697        5.5650000007
  S         5.6444602280        8.6019650015        3.9742725462
  S         5.6444602236        8.6019650024        7.1557274568
 Mo         5.6904336684       10.4573583927        5.5649999984
  S         7.2725409327       11.2876152363        3.9660264735
  S         7.2725409383       11.2876152235        7.1639735180
 Mo         7.2598047842       13.1179986632        5.5650000001
  S         8.8866488354       13.9978363936        3.9745682826
  S         8.8866488387       13.9978363898        7.1554317106
 Mo         8.8436658363       15.8393451627        5.5649999966
  S        10.4599453920       16.7228518832        3.9745023108
  S        10.4599454124       16.7228518582        7.1554976655
 Mo        10.4083318952       18.5712998907        5.5650000021
  S        11.9999900014       19.4759870547        3.9661559065
  S        11.9999900319       19.4759870331        7.1638440664
 Mo        11.9278925400       21.2614913585        5.5649999963
  S        13.5117770508       22.2292000742        3.9744963527
  S        13.5117770525       22.2292000619        7.1555036434
 Mo        13.5295090002       23.9921978360        5.5650000013
  S        15.0902446123       25.0394233992        4.1121618909
  S        15.0902446113       25.0394233910        7.0178381095
 Mo         5.6876682793        5.0018892162        5.5650000023
  S         7.2225205791        5.8686223368        3.9742196511
  S         7.2225205745        5.8686223412        7.1557803535
 Mo         7.1984991290        7.6769206766        5.5650000026
  S         8.7594513566        8.5781788802        3.9794638104
  S         8.7594513597        8.5781788727        7.1505361973
 Mo         8.8316022380       10.3712214584        5.5650000076
  S        10.3811978690       11.2987342299        3.9793271839
  S        10.3811979046       11.2987342322        7.1506728153
 Mo        10.4400338259       13.0954238943        5.5650000020
  S        11.9848323217       14.0258021149        3.9843248649
  S        11.9848323192       14.0258020843        7.1456751501
 Mo        12.0181454819       15.8288043311        5.5650000029
  S        13.5447369739       16.7781465321        3.9793208941
  S        13.5447369870       16.7781465374        7.1506791199
 Mo        13.5731532357       18.5840096351        5.5649999889
  S        15.0899449672       19.5429635201        3.9793503305
  S        15.0899449571       19.5429635088        7.1506496725
 Mo        15.0900174134       21.3456322231        5.5650000036
  S        16.6681424179       22.2288853330        3.9742302904
  S        16.6681424278       22.2288853214        7.1557697101
 Mo        16.6508995555       23.9916463344        5.5650000017
 Mo         8.8523412546        4.9808249169        5.5650000054
  S        10.3624349745        5.9358506110        3.9658245804
  S        10.3624349817        5.9358506247        7.1641754106
 Mo        10.3483623147        7.7440781422        5.5649999918
  S        11.9264404000        8.6223820655        3.9793662408
  S        11.9264403460        8.6223820749        7.1506337680
 Mo        11.9549356607       10.4231067845        5.5649999943
  S        13.5258936995       11.3300165853        3.9723415379
  S        13.5258937088       11.3300165832        7.1576584339
 Mo        13.5364609316       13.1299425966        5.5650000030
  S        15.0899436961       14.0391263295        3.9723330604
  S        15.0899437323       14.0391263227        7.1576669444
 Mo        15.0899448972       15.8530356751        5.5650000026
  S        16.6351408476       16.7781184037        3.9793620433
  S        16.6351408351       16.7781183919        7.1506379669
 Mo        16.6067845916       18.5840621091        5.5650000042
  S        18.1799848281       19.4759107114        3.9662044398