 DBCSR| Multiplication driver                                               XSMM
 DBCSR| Multrec recursion limit                                              512
 DBCSR| Multiplication stack size                                           1000
 DBCSR| Maximum elements for images                                    UNLIMITED
 DBCSR| Multiplicative factor virtual images                                   1
 DBCSR| Randmat seed                                                    12341313
 DBCSR| Multiplication size stacks                                             3
 DBCSR| Number of 3D layers                                               SINGLE
 DBCSR| Use MPI memory allocation                                              T
 DBCSR| Use RMA algorithm                                                      F
 DBCSR| Use Communication thread                                               T
 DBCSR| Communication thread load                                             87


  **** **** ******  **  PROGRAM STARTED AT               2017-05-20 01:31:30.061
 ***** ** ***  *** **   PROGRAM STARTED ON                                  c663
 **    ****   ******    PROGRAM STARTED BY                              jagermar
 ***** **    ** ** **   PROGRAM PROCESS ID                                 27529
  **** **  *******  **  PROGRAM STARTED IN /wrk/jagermar/DONOTREMOVE/critcat/mos
                                           s/cp2k/single_tri-hex/MoS2_type2H_clu
                                           stertypen6cut0s0_pristine_Hn1_cnstr_v
                                           er3_MJ20170509/n9_cut1_s50

 CP2K| version string:                                          CP2K version 4.1
 CP2K| source code revision number:                                    svn:17462
 CP2K| cp2kflags: libint fftw3 libxc parallel mpi3 scalapack libxsmm            
 CP2K| is freely available from                            https://www.cp2k.org/
 CP2K| Program compiled at                          Thu Nov  3 13:22:03 EET 2016
 CP2K| Program compiled on                                   taito-login3.csc.fi
 CP2K| Program compiled for                                       taito_gcc_xsmm
 CP2K| Data directory path                                  /appl/chem/cp2k/data
 CP2K| Input file name                                                  gopt.inp

 GLOBAL| Force Environment number                                              1
 GLOBAL| Basis set file name                                         ./BASIS_SET
 GLOBAL| Potential file name                                         ./POTENTIAL
 GLOBAL| MM Potential file name                                     MM_POTENTIAL
 GLOBAL| Coordinate file name                                    n9_cut1_s50.xyz
 GLOBAL| Method name                                                        CP2K
 GLOBAL| Project name                                                       gopt
 GLOBAL| Preferred FFT library                                             FFTSG
 GLOBAL| Preferred diagonalization lib.                                       SL
 GLOBAL| Run type                                                        GEO_OPT
 GLOBAL| All-to-all communication in single precision                          F
 GLOBAL| FFTs using library dependent lengths                                  T
 GLOBAL| Global print level                                                  LOW
 GLOBAL| Total number of message passing processes                            48
 GLOBAL| Number of threads for this process                                    1
 GLOBAL| This output is from process                                           0
 GLOBAL| CPU model name :  Intel(R) Xeon(R) CPU E5-2690 v3 @ 2.60GHz

 MEMORY| system memory details [Kb]
 MEMORY|                        rank 0           min           max       average
 MEMORY| MemTotal            132170892     132170892     132170892     132170892
 MEMORY| MemFree              86713876      30884056     115081560      90780351
 MEMORY| Buffers                163664         95976        220988        167174
 MEMORY| Cached               20711112       2368100      73980672      22343185
 MEMORY| Slab                  7852560       1589996      21087272       7025263
 MEMORY| SReclaimable           453468         95048        612740        287268
 MEMORY| MemLikelyFree       108042120     101999764     119965200     113577981


 CELL_TOP| Volume [angstrom^3]:                                         9754.635
 CELL_TOP| Vector a [angstrom    30.180     0.000     0.000    |a| =      30.180
 CELL_TOP| Vector b [angstrom     0.000    29.040     0.000    |b| =      29.040
 CELL_TOP| Vector c [angstrom     0.000     0.000    11.130    |c| =      11.130
 CELL_TOP| Angle (b,c), alpha [degree]:                                   90.000
 CELL_TOP| Angle (a,c), beta  [degree]:                                   90.000
 CELL_TOP| Angle (a,b), gamma [degree]:                                   90.000
 CELL_TOP| Numerically orthorhombic:                                         YES

 GENERATE|  Preliminary Number of Bonds generated:                             0
 GENERATE|  Achieved consistency in connectivity generation.

 CELL| Volume [angstrom^3]:                                             9754.635
 CELL| Vector a [angstrom]:      30.180     0.000     0.000    |a| =      30.180
 CELL| Vector b [angstrom]:       0.000    29.040     0.000    |b| =      29.040
 CELL| Vector c [angstrom]:       0.000     0.000    11.130    |c| =      11.130
 CELL| Angle (b,c), alpha [degree]:                                       90.000
 CELL| Angle (a,c), beta  [degree]:                                       90.000
 CELL| Angle (a,b), gamma [degree]:                                       90.000
 CELL| Numerically orthorhombic:                                             YES

 CELL_REF| Volume [angstrom^3]:                                         9754.635
 CELL_REF| Vector a [angstrom    30.180     0.000     0.000    |a| =      30.180
 CELL_REF| Vector b [angstrom     0.000    29.040     0.000    |b| =      29.040
 CELL_REF| Vector c [angstrom     0.000     0.000    11.130    |c| =      11.130
 CELL_REF| Angle (b,c), alpha [degree]:                                   90.000
 CELL_REF| Angle (a,c), beta  [degree]:                                   90.000
 CELL_REF| Angle (a,b), gamma [degree]:                                   90.000
 CELL_REF| Numerically orthorhombic:                                         YES

 *******************************************************************************
 *******************************************************************************
 **                                                                           **
 **     #####                         ##              ##                      **
 **    ##   ##            ##          ##              ##                      **
 **   ##     ##                       ##            ######                    **
 **   ##     ##  ##   ##  ##   #####  ##  ##   ####   ##    #####    #####    **
 **   ##     ##  ##   ##  ##  ##      ## ##   ##      ##   ##   ##  ##   ##   **
 **   ##  ## ##  ##   ##  ##  ##      ####     ###    ##   ######   ######    **
 **    ##  ###   ##   ##  ##  ##      ## ##      ##   ##   ##       ##        **
 **     #######   #####   ##   #####  ##  ##  ####    ##    #####   ##        **
 **           ##                                                    ##        **
 **                                                                           **
 **                                                ... make the atoms dance   **
 **                                                                           **
 **            Copyright (C) by CP2K developers group (2000 - 2016)           **
 **                                                                           **
 *******************************************************************************


 SCF PARAMETERS         Density guess:                                   RESTART
                        --------------------------------------------------------
                        max_scf:                                            2000
                        max_scf_history:                                       0
                        max_diis:                                              4
                        --------------------------------------------------------
                        eps_scf:                                        1.00E-06
                        eps_scf_history:                                0.00E+00
                        eps_diis:                                       1.00E-01
                        eps_eigval:                                     1.00E-05
                        --------------------------------------------------------
                        level_shift [a.u.]:                                 0.00
                        added MOs                                       500  500
                        --------------------------------------------------------
                        Mixing method:                            BROYDEN_MIXING
                                                charge density mixing in g-space
                        --------------------------------------------------------
                        Smear method:                                FERMI_DIRAC
                        Electronic temperature [K]:                        250.0
                        Electronic temperature [a.u.]:                  7.92E-04
                        Accuracy threshold:                             1.00E-10
                        --------------------------------------------------------
                        No outer SCF

 *******************************************************************************
 ***                     STARTING GEOMETRY OPTIMIZATION                      ***
 ***                                   BFGS                                  ***
 *******************************************************************************

 Spin 1

 Number of electrons:                                                        564
 Number of occupied orbitals:                                                564
 Number of molecular orbitals:                                              1064

 Spin 2

 Number of electrons:                                                        564
 Number of occupied orbitals:                                                564
 Number of molecular orbitals:                                              1064

 Number of orbital functions:                                               2262
 Number of independent orbital functions:                                   2262

 Extrapolation method: initial_guess

 *** WARNING in qs_initial_guess.F:262 :: User requested to restart the    ***
 *** wavefunction from the file named: gopt-RESTART-1.wfn. This file does  ***
 *** not exist. Please check the existence of the file or change properly  ***
 *** the value of the keyword WFN_RESTART_FILE_NAME. Calculation continues ***
 *** using ATOMIC GUESS.                                                   ***



 SCF WAVEFUNCTION OPTIMIZATION

  Step     Update method      Time    Convergence         Total energy    Change
  ------------------------------------------------------------------------------
     1 NoMix/Diag. 0.10E+00    6.3     0.44427020     -3812.3232810403 -3.81E+03
     2 Broy./Diag. 0.10E+00    8.1     0.02843056     -3827.6440641556 -1.53E+01
     3 Broy./Diag. 0.10E+00    7.9     0.18062390     -3811.5380541662  1.61E+01
     4 Broy./Diag. 0.10E+00    7.8     0.04338376     -3774.3418264781  3.72E+01
     5 Broy./Diag. 0.10E+00    7.8     0.04004524     -3779.1902810955 -4.85E+00
     6 Broy./Diag. 0.10E+00    8.1     0.02255392     -3777.5398895969  1.65E+00
     7 Broy./Diag. 0.10E+00    8.0     0.02139728     -3781.1865507782 -3.65E+00
     8 Broy./Diag. 0.10E+00    8.1     0.00967873     -3780.4736259460  7.13E-01
     9 Broy./Diag. 0.10E+00    8.1     0.00459869     -3782.2872814037 -1.81E+00
    10 Broy./Diag. 0.10E+00    8.1     0.00875175     -3782.3265466029 -3.93E-02
    11 Broy./Diag. 0.10E+00    8.3     0.00410682     -3782.9952204828 -6.69E-01
    12 Broy./Diag. 0.10E+00    8.2     0.00312197     -3782.9871096246  8.11E-03
    13 Broy./Diag. 0.10E+00    8.1     0.00301243     -3783.1280671933 -1.41E-01
    14 Broy./Diag. 0.10E+00    8.0     0.00108642     -3783.2495074915 -1.21E-01
    15 Broy./Diag. 0.10E+00    8.2     0.00249691     -3783.3932155217 -1.44E-01
    16 Broy./Diag. 0.10E+00    8.0     0.00016282     -3783.6595838237 -2.66E-01
    17 Broy./Diag. 0.10E+00    8.1     0.00127050     -3783.7141481661 -5.46E-02
    18 Broy./Diag. 0.10E+00    8.4     0.00015700     -3783.8238601623 -1.10E-01
    19 Broy./Diag. 0.10E+00    8.6     0.00096818     -3783.8013545036  2.25E-02
    20 Broy./Diag. 0.10E+00    8.5     0.00018899     -3783.7817834672  1.96E-02
    21 Broy./Diag. 0.10E+00    8.3     0.00049100     -3783.7753730975  6.41E-03
    22 Broy./Diag. 0.10E+00    8.3     0.00020057     -3783.8017679805 -2.64E-02
    23 Broy./Diag. 0.10E+00    8.2     0.00025032     -3783.8108812555 -9.11E-03
    24 Broy./Diag. 0.10E+00    8.2     0.00019121     -3783.8120821371 -1.20E-03
    25 Broy./Diag. 0.10E+00    8.6     0.00022872     -3783.8069433727  5.14E-03
    26 Broy./Diag. 0.10E+00    8.2     0.00007141     -3783.8078646651 -9.21E-04
    27 Broy./Diag. 0.10E+00    8.1     0.00018602     -3783.8131412067 -5.28E-03
    28 Broy./Diag. 0.10E+00    8.1     0.00007410     -3783.8196245437 -6.48E-03
    29 Broy./Diag. 0.10E+00    8.3     0.00004899     -3783.8294420097 -9.82E-03
    30 Broy./Diag. 0.10E+00    8.4     0.00008096     -3783.8358657726 -6.42E-03
    31 Broy./Diag. 0.10E+00    8.2     0.00003336     -3783.8384875871 -2.62E-03
    32 Broy./Diag. 0.10E+00    8.3     0.00005853     -3783.8384293540  5.82E-05
    33 Broy./Diag. 0.10E+00    8.2     0.00004526     -3783.8387362303 -3.07E-04
    34 Broy./Diag. 0.10E+00    8.0     0.00002977     -3783.8381069027  6.29E-04
    35 Broy./Diag. 0.10E+00    8.4     0.00004109     -3783.8363281347  1.78E-03
    36 Broy./Diag. 0.10E+00    8.2     0.00001885     -3783.8342239377  2.10E-03
    37 Broy./Diag. 0.10E+00    8.4     0.00001595     -3783.8338716702  3.52E-04
    38 Broy./Diag. 0.10E+00    8.6     0.00002651     -3783.8341524507 -2.81E-04
    39 Broy./Diag. 0.10E+00    8.4     0.00000726     -3783.8341903042 -3.79E-05
    40 Broy./Diag. 0.10E+00    8.4     0.00002374     -3783.8346537391 -4.63E-04
    41 Broy./Diag. 0.10E+00    8.2     0.00000776     -3783.8353691467 -7.15E-04
    42 Broy./Diag. 0.10E+00    8.3     0.00000827     -3783.8353765635 -7.42E-06
    43 Broy./Diag. 0.10E+00    8.3     0.00001106     -3783.8350479856  3.29E-04
    44 Broy./Diag. 0.10E+00    8.2     0.00000276     -3783.8347184532  3.30E-04
    45 Broy./Diag. 0.10E+00    8.5     0.00000629     -3783.8344475287  2.71E-04
    46 Broy./Diag. 0.10E+00    8.0     0.00000348     -3783.8341399634  3.08E-04
    47 Broy./Diag. 0.10E+00    8.1     0.00000416     -3783.8338973551  2.43E-04
    48 Broy./Diag. 0.10E+00    8.2     0.00000428     -3783.8338225608  7.48E-05
    49 Broy./Diag. 0.10E+00    8.2     0.00000249     -3783.8338681683 -4.56E-05
    50 Broy./Diag. 0.10E+00    8.2     0.00000266     -3783.8338335077  3.47E-05
    51 Broy./Diag. 0.10E+00    8.3     0.00000280     -3783.8337739676  5.95E-05
    52 Broy./Diag. 0.10E+00    8.1     0.00000141     -3783.8337789084 -4.94E-06
    53 Broy./Diag. 0.10E+00    8.1     0.00000199     -3783.8338015339 -2.26E-05
    54 Broy./Diag. 0.10E+00    8.2     0.00000097     -3783.8338008124  7.22E-07

  *** SCF run converged in    54 steps ***


  Electronic density on regular grids:      -1127.9999999998        0.0000000002
  Core density on regular grids:             1127.9999999991       -0.0000000009
  Total charge density on r-space grids:       -0.0000000007
  Total charge density g-space grids:          -0.0000000007

  Overlap energy of the core charge distribution:               0.00000771303362
  Self energy of the core charge distribution:              -7576.63499872671309
  Core Hamiltonian energy:                                   1741.10894615319671
  Hartree energy:                                            2595.96400791172164
  Exchange-correlation energy:                               -543.03841359943408
  Dispersion energy:                                           -1.23018425564558
  Electronic entropic energy:                                  -0.00316601235504
  Fermi energy:                                                -0.05677026716621

  Total energy:                                             -3783.83380081235464

   Calculate PDOS at iteration step                                  0
  Reached convergence in            1  iterations 

   Compute         1198    additional unoccupied KS orbitals

              ---- PDOS: start iteration on the KS states --- 
 Writing PDOS 1_0 to gopt-dosfile-ALPHA_k1-1.pdos
 Writing PDOS 1_0 to gopt-dosfile-ALPHA_k2-1.pdos

   Calculate PDOS at iteration step                                  0
  Reached convergence in            1  iterations 

   Compute         1198    additional unoccupied KS orbitals

              ---- PDOS: start iteration on the KS states --- 
 Writing PDOS 1_0 to gopt-dosfile-BETA_k1-1.pdos
 Writing PDOS 1_0 to gopt-dosfile-BETA_k2-1.pdos

  Integrated absolute spin density  :                               0.0000000000
  WARNING: S**2 computation does not yet treat fractional occupied orbitals

 ENERGY| Total FORCE_EVAL ( QS ) energy (a.u.):            -3783.833734441608158


 --------  Informations at step =     0 ------------
  Optimization Method        =                 BFGS
  Total Energy               =     -3783.8337344416
  Used time                  =              456.919
 ---------------------------------------------------

 --------------------------
 OPTIMIZATION STEP:      1
 --------------------------

  Step is scaled; Scaling factor =  0.64456

 Spin 1

 Number of electrons:                                                        564
 Number of occupied orbitals:                                                572
 Number of molecular orbitals:                                              1064

 Spin 2

 Number of electrons:                                                        564
 Number of occupied orbitals:                                                572
 Number of molecular orbitals:                                              1064

 Number of orbital functions:                                               2262
 Number of independent orbital functions:                                   2262

 Extrapolation method: ASPC


 SCF WAVEFUNCTION OPTIMIZATION

  Step     Update method      Time    Convergence         Total energy    Change
  ------------------------------------------------------------------------------
     1 Broy./Diag. 0.10E+00    6.3     0.30164401     -3777.5975430657 -3.78E+03
     2 Broy./Diag. 0.10E+00    7.9     0.04699302     -3806.6346953404 -2.90E+01
     3 Broy./Diag. 0.10E+00    8.1     0.29452702     -3800.7967514430  5.84E+00
     4 Broy./Diag. 0.10E+00    8.1     0.06674171     -3785.5897181524  1.52E+01
     5 Broy./Diag. 0.10E+00    8.2     0.07383777     -3785.8330136780 -2.43E-01
     6 Broy./Diag. 0.10E+00    7.8     0.11467409     -3785.2490365798  5.84E-01
     7 Broy./Diag. 0.10E+00    7.9     0.08286946     -3785.0284987907  2.21E-01
     8 Broy./Diag. 0.10E+00    8.0     0.14971972     -3783.7028404568  1.33E+00
     9 Broy./Diag. 0.10E+00    8.2     0.06182383     -3787.2579658184 -3.56E+00
    10 Broy./Diag. 0.10E+00    8.3     0.08814986     -3786.7280898359  5.30E-01
    11 Broy./Diag. 0.10E+00    8.2     0.01299807     -3786.5157692664  2.12E-01
    12 Broy./Diag. 0.10E+00    8.1     0.03635410     -3786.7885402836 -2.73E-01
    13 Broy./Diag. 0.10E+00    8.1     0.03532014     -3787.2501634046 -4.62E-01
    14 Broy./Diag. 0.10E+00    8.2     0.02703201     -3786.9632313186  2.87E-01
    15 Broy./Diag. 0.10E+00    8.4     0.01471750     -3787.1027301959 -1.39E-01
    16 Broy./Diag. 0.10E+00    8.3     0.01109435     -3787.1107084259 -7.98E-03
    17 Broy./Diag. 0.10E+00    8.5     0.00469610     -3786.8903359030  2.20E-01
    18 Broy./Diag. 0.10E+00    8.2     0.00370561     -3786.8659667152  2.44E-02
    19 Broy./Diag. 0.10E+00    8.1     0.00152876     -3786.8663488677 -3.82E-04
    20 Broy./Diag. 0.10E+00    8.3     0.00215416     -3787.0257184405 -1.59E-01
    21 Broy./Diag. 0.10E+00    8.5     0.00136493     -3787.2321991220 -2.06E-01
    22 Broy./Diag. 0.10E+00    8.6     0.00189355     -3787.3278895762 -9.57E-02
    23 Broy./Diag. 0.10E+00    8.4     0.00261235     -3787.4002854299 -7.24E-02
    24 Broy./Diag. 0.10E+00    8.5     0.00165795     -3787.4441461232 -4.39E-02
    25 Broy./Diag. 0.10E+00    8.2     0.00097246     -3787.4692452263 -2.51E-02
    26 Broy./Diag. 0.10E+00    8.2     0.00086469     -3787.4553885240  1.39E-02
    27 Broy./Diag. 0.10E+00    8.1     0.00088230     -3787.4445535642  1.08E-02
    28 Broy./Diag. 0.10E+00    8.1     0.00033760     -3787.4385189316  6.03E-03
    29 Broy./Diag. 0.10E+00    8.1     0.00037063     -3787.4540283223 -1.55E-02
    30 Broy./Diag. 0.10E+00    8.2     0.00035412     -3787.4925514195 -3.85E-02
    31 Broy./Diag. 0.10E+00    8.3     0.00028577     -3787.5219203976 -2.94E-02
    32 Broy./Diag. 0.10E+00    8.2     0.00041860     -3787.5391340644 -1.72E-02
    33 Broy./Diag. 0.10E+00    8.3     0.00061529     -3787.5387347903  3.99E-04
    34 Broy./Diag. 0.10E+00    8.1     0.00056607     -3787.5290594452  9.68E-03
    35 Broy./Diag. 0.10E+00    8.2     0.00030751     -3787.5171849722  1.19E-02
    36 Broy./Diag. 0.10E+00    8.0     0.00028838     -3787.5054434804  1.17E-02
    37 Broy./Diag. 0.10E+00    8.3     0.00024562     -3787.5010500910  4.39E-03
    38 Broy./Diag. 0.10E+00    8.2     0.00014861     -3787.5033718540 -2.32E-03
    39 Broy./Diag. 0.10E+00    8.2     0.00012711     -3787.5139658474 -1.06E-02
    40 Broy./Diag. 0.10E+00    8.6     0.00013547     -3787.5256479352 -1.17E-02
    41 Broy./Diag. 0.10E+00    8.6     0.00007024     -3787.5340182010 -8.37E-03
    42 Broy./Diag. 0.10E+00    8.5     0.00010404     -3787.5352671528 -1.25E-03
    43 Broy./Diag. 0.10E+00    8.3     0.00013992     -3787.5327330278  2.53E-03
    44 Broy./Diag. 0.10E+00    8.4     0.00017159     -3787.5270212940  5.71E-03
    45 Broy./Diag. 0.10E+00    8.3     0.00011528     -3787.5207908960  6.23E-03
    46 Broy./Diag. 0.10E+00    8.2     0.00009043     -3787.5173073562  3.48E-03
    47 Broy./Diag. 0.10E+00    8.2     0.00007451     -3787.5166325070  6.75E-04
    48 Broy./Diag. 0.10E+00    8.3     0.00005130     -3787.5172245530 -5.92E-04
    49 Broy./Diag. 0.10E+00    8.1     0.00001468     -3787.5182628537 -1.04E-03
    50 Broy./Diag. 0.10E+00    7.9     0.00003109     -3787.5181322737  1.31E-04
    51 Broy./Diag. 0.10E+00    8.2     0.00001642     -3787.5172777426  8.55E-04
    52 Broy./Diag. 0.10E+00    8.3     0.00002506     -3787.5159217491  1.36E-03
    53 Broy./Diag. 0.10E+00    8.1     0.00002736     -3787.5134607318  2.46E-03
    54 Broy./Diag. 0.10E+00    8.3     0.00002147     -3787.5108914210  2.57E-03
    55 Broy./Diag. 0.10E+00    8.2     0.00001789     -3787.5100006672  8.91E-04
    56 Broy./Diag. 0.10E+00    8.0     0.00001396     -3787.5099905180  1.01E-05
    57 Broy./Diag. 0.10E+00    8.3     0.00000716     -3787.5102583640 -2.68E-04
    58 Broy./Diag. 0.10E+00    8.2     0.00001083     -3787.5107466391 -4.88E-04
    59 Broy./Diag. 0.10E+00    8.3     0.00000557     -3787.5112051987 -4.59E-04
    60 Broy./Diag. 0.10E+00    8.6     0.00000776     -3787.5113396610 -1.34E-04
    61 Broy./Diag. 0.10E+00    8.6     0.00000680     -3787.5112615142  7.81E-05
    62 Broy./Diag. 0.10E+00    8.4     0.00000445     -3787.5111306553  1.31E-04
    63 Broy./Diag. 0.10E+00    8.3     0.00000517     -3787.5110491595  8.15E-05
    64 Broy./Diag. 0.10E+00    8.1     0.00000423     -3787.5110872872 -3.81E-05
    65 Broy./Diag. 0.10E+00    8.6     0.00000500     -3787.5112782714 -1.91E-04
    66 Broy./Diag. 0.10E+00    8.3     0.00000435     -3787.5114513053 -1.73E-04
    67 Broy./Diag. 0.10E+00    8.3     0.00000228     -3787.5115573662 -1.06E-04
    68 Broy./Diag. 0.10E+00    8.4     0.00000292     -3787.5115796094 -2.22E-05
    69 Broy./Diag. 0.10E+00    8.2     0.00000109     -3787.5115020823  7.75E-05
    70 Broy./Diag. 0.10E+00    8.2     0.00000095     -3787.5113864290  1.16E-04

  *** SCF run converged in    70 steps ***


  Electronic density on regular grids:      -1128.0000000000        0.0000000000
  Core density on regular grids:             1127.9999999991       -0.0000000009
  Total charge density on r-space grids:       -0.0000000009
  Total charge density g-space grids:          -0.0000000009

  Overlap energy of the core charge distribution:               0.00000002933950
  Self energy of the core charge distribution:              -7576.63499872671309
  Core Hamiltonian energy:                                   1720.35520464313868
  Hartree energy:                                            2608.19492470147861
  Exchange-correlation energy:                               -538.20254737703306
  Dispersion energy:                                           -1.21493065446898
  Electronic entropic energy:                                  -0.00903903841115
  Fermi energy:                                                -0.05385925003697

  Total energy:                                             -3787.51138642896603

   Calculate PDOS at iteration step                                  1
  Reached convergence in            1  iterations 

   Compute         1198    additional unoccupied KS orbitals

              ---- PDOS: start iteration on the KS states --- 
 Writing PDOS 1_1 to gopt-dosfile-ALPHA_k1-1.pdos
 Writing PDOS 1_1 to gopt-dosfile-ALPHA_k2-1.pdos

   Calculate PDOS at iteration step                                  1
  Reached convergence in            1  iterations 

   Compute         1198    additional unoccupied KS orbitals

              ---- PDOS: start iteration on the KS states --- 
 Writing PDOS 1_1 to gopt-dosfile-BETA_k1-1.pdos
 Writing PDOS 1_1 to gopt-dosfile-BETA_k2-1.pdos

  Integrated absolute spin density  :                               0.0000000000
  WARNING: S**2 computation does not yet treat fractional occupied orbitals

 ENERGY| Total FORCE_EVAL ( QS ) energy (a.u.):            -3787.511323745480695


 --------  Informations at step =     1 ------------
  Optimization Method        =                 BFGS
  Total Energy               =     -3787.5113237455
  Real energy change         =        -3.6775893039
  Predicted change in energy =        -4.1946684532
  Scaling factor             =         0.6445575577
  Step size                  =         0.4724315332
  Trust radius               =         0.4724315332
  Decrease in energy         =                  YES
  Used time                  =              591.408

  Convergence check :
  Max. step size             =         0.4724315332
  Conv. limit for step size  =         0.0030000000
  Convergence in step size   =                   NO
  RMS step size              =         0.1467832559
  Conv. limit for RMS step   =         0.0015000000
  Convergence in RMS step    =                   NO
  Max. gradient              =         0.1561220923
  Conv. limit for gradients  =         0.0004500000
  Conv. for gradients        =                   NO
  RMS gradient               =         0.0370770440
  Conv. limit for RMS grad.  =         0.0003000000
  Conv. for gradients        =                   NO
 ---------------------------------------------------

 --------------------------
 OPTIMIZATION STEP:      2
 --------------------------

  Step is scaled; Scaling factor =  0.80853

 Spin 1

 Number of electrons:                                                        564
 Number of occupied orbitals:                                                583
 Number of molecular orbitals:                                              1064

 Spin 2

 Number of electrons:                                                        564
 Number of occupied orbitals:                                                583
 Number of molecular orbitals:                                              1064

 Number of orbital functions:                                               2262
 Number of independent orbital functions:                                   2262

 Extrapolation method: ASPC


 SCF WAVEFUNCTION OPTIMIZATION

  Step     Update method      Time    Convergence         Total energy    Change
  ------------------------------------------------------------------------------
     1 Broy./Diag. 0.10E+00    6.6     0.35123255     -3784.1546324911 -3.78E+03
     2 Broy./Diag. 0.10E+00    7.7     0.04731208     -3796.1978583025 -1.20E+01
     3 Broy./Diag. 0.10E+00    7.8     0.27738508     -3793.2786455930  2.92E+00
     4 Broy./Diag. 0.10E+00    8.0     0.03904296     -3780.2069795038  1.31E+01
     5 Broy./Diag. 0.10E+00    8.0     0.18553542     -3781.7735799786 -1.57E+00
     6 Broy./Diag. 0.10E+00    8.1     0.09063647     -3782.1825483475 -4.09E-01
     7 Broy./Diag. 0.10E+00    8.2     0.08192402     -3783.9265464045 -1.74E+00
     8 Broy./Diag. 0.10E+00    8.2     0.10729954     -3784.4465706137 -5.20E-01
     9 Broy./Diag. 0.10E+00    8.4     0.03284801     -3784.9736956955 -5.27E-01
    10 Broy./Diag. 0.10E+00    8.3     0.02031815     -3786.2289091800 -1.26E+00
    11 Broy./Diag. 0.10E+00    8.3     0.05378110     -3787.1696479164 -9.41E-01
    12 Broy./Diag. 0.10E+00    8.2     0.01401023     -3787.9099171836 -7.40E-01
    13 Broy./Diag. 0.10E+00    8.1     0.03485727     -3788.0301091039 -1.20E-01
    14 Broy./Diag. 0.10E+00    8.2     0.01616185     -3787.9684583275  6.17E-02
    15 Broy./Diag. 0.10E+00    8.2     0.00511788     -3788.1097379511 -1.41E-01
    16 Broy./Diag. 0.10E+00    8.1     0.01109042     -3788.1301132204 -2.04E-02
    17 Broy./Diag. 0.10E+00    8.2     0.00667770     -3788.1135256998  1.66E-02
    18 Broy./Diag. 0.10E+00    8.1     0.00213515     -3788.1899311739 -7.64E-02
    19 Broy./Diag. 0.10E+00    8.2     0.00121877     -3788.2801681673 -9.02E-02
    20 Broy./Diag. 0.10E+00    8.0     0.00093197     -3788.3269279731 -4.68E-02
    21 Broy./Diag. 0.10E+00    8.1     0.00079704     -3788.3854375800 -5.85E-02
    22 Broy./Diag. 0.10E+00    8.3     0.00213237     -3788.3882439035 -2.81E-03
    23 Broy./Diag. 0.10E+00    8.1     0.00109312     -3788.4119700539 -2.37E-02
    24 Broy./Diag. 0.10E+00    8.1     0.00061210     -3788.4217345183 -9.76E-03
    25 Broy./Diag. 0.10E+00    8.3     0.00046708     -3788.4345295391 -1.28E-02
    26 Broy./Diag. 0.10E+00    8.4     0.00051876     -3788.4388443332 -4.31E-03
    27 Broy./Diag. 0.10E+00    8.5     0.00042396     -3788.4604566989 -2.16E-02
    28 Broy./Diag. 0.10E+00    8.6     0.00025707     -3788.4575871628  2.87E-03
    29 Broy./Diag. 0.10E+00    8.3     0.00016886     -3788.4607399031 -3.15E-03
    30 Broy./Diag. 0.10E+00    8.2     0.00020147     -3788.4699819483 -9.24E-03
    31 Broy./Diag. 0.10E+00    8.3     0.00029397     -3788.4806514351 -1.07E-02
    32 Broy./Diag. 0.10E+00    8.1     0.00011141     -3788.4934744512 -1.28E-02
    33 Broy./Diag. 0.10E+00    8.1     0.00024432     -3788.5001571815 -6.68E-03
    34 Broy./Diag. 0.10E+00    8.3     0.00028964     -3788.5035782574 -3.42E-03
    35 Broy./Diag. 0.10E+00    8.3     0.00015858     -3788.5032057585  3.72E-04
    36 Broy./Diag. 0.10E+00    8.1     0.00010671     -3788.4989745250  4.23E-03
    37 Broy./Diag. 0.10E+00    8.2     0.00011916     -3788.4939904873  4.98E-03
    38 Broy./Diag. 0.10E+00    8.1     0.00005561     -3788.4904881446  3.50E-03
    39 Broy./Diag. 0.10E+00    8.1     0.00004744     -3788.4878209393  2.67E-03
    40 Broy./Diag. 0.10E+00    8.2     0.00003711     -3788.4864959234  1.33E-03
    41 Broy./Diag. 0.10E+00    8.3     0.00004970     -3788.4850823077  1.41E-03
    42 Broy./Diag. 0.10E+00    8.2     0.00002651     -3788.4857200614 -6.38E-04
    43 Broy./Diag. 0.10E+00    8.1     0.00002971     -3788.4872343548 -1.51E-03
    44 Broy./Diag. 0.10E+00    8.1     0.00002567     -3788.4885992772 -1.36E-03
    45 Broy./Diag. 0.10E+00    8.1     0.00005284     -3788.4890021291 -4.03E-04
    46 Broy./Diag. 0.10E+00    8.6     0.00003474     -3788.4893719426 -3.70E-04
    47 Broy./Diag. 0.10E+00    8.5     0.00002047     -3788.4895741952 -2.02E-04
    48 Broy./Diag. 0.10E+00    8.5     0.00001150     -3788.4901205875 -5.46E-04
    49 Broy./Diag. 0.10E+00    8.7     0.00001049     -3788.4903732460 -2.53E-04
    50 Broy./Diag. 0.10E+00    8.3     0.00000641     -3788.4903946152 -2.14E-05
    51 Broy./Diag. 0.10E+00    8.2     0.00001448     -3788.4901434281  2.51E-04
    52 Broy./Diag. 0.10E+00    8.1     0.00000824     -3788.4898833209  2.60E-04
    53 Broy./Diag. 0.10E+00    8.3     0.00000476     -3788.4896587496  2.25E-04
    54 Broy./Diag. 0.10E+00    8.4     0.00000596     -3788.4894981957  1.61E-04
    55 Broy./Diag. 0.10E+00    8.2     0.00001246     -3788.4893842753  1.14E-04
    56 Broy./Diag. 0.10E+00    8.1     0.00000884     -3788.4893093742  7.49E-05
    57 Broy./Diag. 0.10E+00    7.9     0.00000822     -3788.4893303500 -2.10E-05
    58 Broy./Diag. 0.10E+00    8.1     0.00000361     -3788.4892747076  5.56E-05
    59 Broy./Diag. 0.10E+00    8.5     0.00000280     -3788.4892621967  1.25E-05
    60 Broy./Diag. 0.10E+00    8.3     0.00000239     -3788.4892337913  2.84E-05
    61 Broy./Diag. 0.10E+00    8.4     0.00000439     -3788.4891892610  4.45E-05
    62 Broy./Diag. 0.10E+00    8.2     0.00000339     -3788.4891503193  3.89E-05
    63 Broy./Diag. 0.10E+00    8.4     0.00000082     -3788.4891230105  2.73E-05

  *** SCF run converged in    63 steps ***


  Electronic density on regular grids:      -1127.9999999996        0.0000000004
  Core density on regular grids:             1127.9999999991       -0.0000000009
  Total charge density on r-space grids:       -0.0000000005
  Total charge density g-space grids:          -0.0000000005

  Overlap energy of the core charge distribution:               0.00000000196647
  Self energy of the core charge distribution:              -7576.63499872671309
  Core Hamiltonian energy:                                   1713.41074196474051
  Hartree energy:                                            2612.49129376539304
  Exchange-correlation energy:                               -536.54320090260671
  Dispersion energy:                                           -1.20847210667054
  Electronic entropic energy:                                  -0.00448701731036
  Fermi energy:                                                -0.06504821100841

  Total energy:                                             -3788.48912301049768

   Calculate PDOS at iteration step                                  2
  Reached convergence in            1  iterations 

   Compute         1198    additional unoccupied KS orbitals

              ---- PDOS: start iteration on the KS states --- 
 Writing PDOS 1_2 to gopt-dosfile-ALPHA_k1-1.pdos
 Writing PDOS 1_2 to gopt-dosfile-ALPHA_k2-1.pdos

   Calculate PDOS at iteration step                                  2
  Reached convergence in            1  iterations 

   Compute         1198    additional unoccupied KS orbitals

              ---- PDOS: start iteration on the KS states --- 
 Writing PDOS 1_2 to gopt-dosfile-BETA_k1-1.pdos
 Writing PDOS 1_2 to gopt-dosfile-BETA_k2-1.pdos

  Integrated absolute spin density  :                               0.0000000000
  WARNING: S**2 computation does not yet treat fractional occupied orbitals

 ENERGY| Total FORCE_EVAL ( QS ) energy (a.u.):            -3788.489180377257981


 --------  Informations at step =     2 ------------
  Optimization Method        =                 BFGS
  Total Energy               =     -3788.4891803773
  Real energy change         =        -0.9778566318
  Predicted change in energy =        -0.7811360203
  Scaling factor             =         0.8085264845
  Step size                  =         0.4724315332
  Trust radius               =         0.4724315332
  Decrease in energy         =                  YES
  Used time                  =              531.940

  Convergence check :
  Max. step size             =         0.4724315332
  Conv. limit for step size  =         0.0030000000
  Convergence in step size   =                   NO
  RMS step size              =         0.1123711081
  Conv. limit for RMS step   =         0.0015000000
  Convergence in RMS step    =                   NO
  Max. gradient              =         0.0823785449
  Conv. limit for gradients  =         0.0004500000
  Conv. for gradients        =                   NO
  RMS gradient               =         0.0181382675
  Conv. limit for RMS grad.  =         0.0003000000
  Conv. for gradients        =                   NO
 ---------------------------------------------------

 --------------------------
 OPTIMIZATION STEP:      3
 --------------------------

  Step is scaled; Scaling factor =  0.72494

 Spin 1

 Number of electrons:                                                        564
 Number of occupied orbitals:                                                577
 Number of molecular orbitals:                                              1064

 Spin 2

 Number of electrons:                                                        564
 Number of occupied orbitals:                                                577
 Number of molecular orbitals:                                              1064

 Number of orbital functions:                                               2262
 Number of independent orbital functions:                                   2262

 Extrapolation method: ASPC


 SCF WAVEFUNCTION OPTIMIZATION

  Step     Update method      Time    Convergence         Total energy    Change
  ------------------------------------------------------------------------------
     1 Broy./Diag. 0.10E+00    6.9     0.16560842     -3786.7769025974 -3.79E+03
     2 Broy./Diag. 0.10E+00    8.0     0.01344719     -3794.7298104286 -7.95E+00
     3 Broy./Diag. 0.10E+00    8.1     0.12513978     -3792.7928660894  1.94E+00
     4 Broy./Diag. 0.10E+00    7.9     0.05773603     -3789.8912454820  2.90E+00
     5 Broy./Diag. 0.10E+00    8.3     0.04452786     -3789.6559208266  2.35E-01
     6 Broy./Diag. 0.10E+00    8.2     0.02509666     -3788.7640018372  8.92E-01
     7 Broy./Diag. 0.10E+00    8.0     0.03414393     -3788.7107311572  5.33E-02
     8 Broy./Diag. 0.10E+00    8.1     0.01140955     -3788.8064659632 -9.57E-02
     9 Broy./Diag. 0.10E+00    8.3     0.00668584     -3788.7591264833  4.73E-02
    10 Broy./Diag. 0.10E+00    8.0     0.00563227     -3788.7671061176 -7.98E-03
    11 Broy./Diag. 0.10E+00    8.1     0.00385544     -3788.7136082110  5.35E-02
    12 Broy./Diag. 0.10E+00    8.1     0.00209504     -3788.6691735025  4.44E-02
    13 Broy./Diag. 0.10E+00    8.1     0.00154435     -3788.6143662431  5.48E-02
    14 Broy./Diag. 0.10E+00    8.2     0.00119297     -3788.5932272850  2.11E-02
    15 Broy./Diag. 0.10E+00    8.0     0.00143275     -3788.6120357249 -1.88E-02
    16 Broy./Diag. 0.10E+00    8.1     0.00040242     -3788.6828995988 -7.09E-02
    17 Broy./Diag. 0.10E+00    8.2     0.00030492     -3788.7337168574 -5.08E-02
    18 Broy./Diag. 0.10E+00    8.2     0.00036633     -3788.7785832054 -4.49E-02
    19 Broy./Diag. 0.10E+00    8.3     0.00022305     -3788.8255098172 -4.69E-02
    20 Broy./Diag. 0.10E+00    8.4     0.00014408     -3788.8560868122 -3.06E-02
    21 Broy./Diag. 0.10E+00    8.4     0.00020992     -3788.8611970014 -5.11E-03
    22 Broy./Diag. 0.10E+00    8.6     0.00019390     -3788.8623132094 -1.12E-03
    23 Broy./Diag. 0.10E+00    8.3     0.00022074     -3788.8632686516 -9.55E-04
    24 Broy./Diag. 0.10E+00    8.4     0.00021563     -3788.8655724926 -2.30E-03
    25 Broy./Diag. 0.10E+00    8.2     0.00020588     -3788.8634528013  2.12E-03
    26 Broy./Diag. 0.10E+00    8.0     0.00014474     -3788.8591987051  4.25E-03
    27 Broy./Diag. 0.10E+00    8.0     0.00013169     -3788.8549424461  4.26E-03
    28 Broy./Diag. 0.10E+00    8.3     0.00006962     -3788.8546414889  3.01E-04
    29 Broy./Diag. 0.10E+00    8.3     0.00005774     -3788.8570361558 -2.39E-03
    30 Broy./Diag. 0.10E+00    8.2     0.00005567     -3788.8591757279 -2.14E-03
    31 Broy./Diag. 0.10E+00    8.1     0.00003562     -3788.8637078748 -4.53E-03
    32 Broy./Diag. 0.10E+00    8.3     0.00002149     -3788.8659928011 -2.28E-03
    33 Broy./Diag. 0.10E+00    8.3     0.00003998     -3788.8665185831 -5.26E-04
    34 Broy./Diag. 0.10E+00    8.3     0.00008137     -3788.8660062085  5.12E-04
    35 Broy./Diag. 0.10E+00    8.1     0.00005232     -3788.8664177134 -4.12E-04
    36 Broy./Diag. 0.10E+00    8.2     0.00003574     -3788.8678768368 -1.46E-03
    37 Broy./Diag. 0.10E+00    8.3     0.00004796     -3788.8703241159 -2.45E-03
    38 Broy./Diag. 0.10E+00    8.1     0.00002819     -3788.8718286561 -1.50E-03
    39 Broy./Diag. 0.10E+00    8.1     0.00001875     -3788.8721498424 -3.21E-04
    40 Broy./Diag. 0.10E+00    8.6     0.00001157     -3788.8721492000  6.42E-07
    41 Broy./Diag. 0.10E+00    8.6     0.00001428     -3788.8723386196 -1.89E-04
    42 Broy./Diag. 0.10E+00    8.6     0.00001285     -3788.8727599555 -4.21E-04
    43 Broy./Diag. 0.10E+00    8.6     0.00001244     -3788.8726001757  1.60E-04
    44 Broy./Diag. 0.10E+00    8.4     0.00003991     -3788.8728121177 -2.12E-04
    45 Broy./Diag. 0.10E+00    8.1     0.00001916     -3788.8731544131 -3.42E-04
    46 Broy./Diag. 0.10E+00    8.1     0.00001150     -3788.8735337964 -3.79E-04
    47 Broy./Diag. 0.10E+00    8.1     0.00001265     -3788.8736827336 -1.49E-04
    48 Broy./Diag. 0.10E+00    8.4     0.00001180     -3788.8738125180 -1.30E-04
    49 Broy./Diag. 0.10E+00    8.3     0.00001432     -3788.8739967193 -1.84E-04
    50 Broy./Diag. 0.10E+00    8.3     0.00000880     -3788.8741544636 -1.58E-04
    51 Broy./Diag. 0.10E+00    8.5     0.00000573     -3788.8741885227 -3.41E-05
    52 Broy./Diag. 0.10E+00    8.2     0.00000445     -3788.8742235911 -3.51E-05
    53 Broy./Diag. 0.10E+00    8.2     0.00000292     -3788.8743784870 -1.55E-04
    54 Broy./Diag. 0.10E+00    8.2     0.00000916     -3788.8745576798 -1.79E-04
    55 Broy./Diag. 0.10E+00    8.3     0.00000630     -3788.8746869497 -1.29E-04
    56 Broy./Diag. 0.10E+00    8.3     0.00000386     -3788.8747548522 -6.79E-05
    57 Broy./Diag. 0.10E+00    8.2     0.00000378     -3788.8747867261 -3.19E-05
    58 Broy./Diag. 0.10E+00    8.2     0.00000277     -3788.8747639219  2.28E-05
    59 Broy./Diag. 0.10E+00    8.3     0.00000308     -3788.8747385884  2.53E-05
    60 Broy./Diag. 0.10E+00    8.5     0.00000274     -3788.8747285134  1.01E-05
    61 Broy./Diag. 0.10E+00    8.6     0.00000136     -3788.8747332792 -4.77E-06
    62 Broy./Diag. 0.10E+00    8.5     0.00000075     -3788.8747485419 -1.53E-05

  *** SCF run converged in    62 steps ***


  Electronic density on regular grids:      -1127.9999999997        0.0000000003
  Core density on regular grids:             1127.9999999991       -0.0000000009
  Total charge density on r-space grids:       -0.0000000006
  Total charge density g-space grids:          -0.0000000006

  Overlap energy of the core charge distribution:               0.00000000026897
  Self energy of the core charge distribution:              -7576.63499872671309
  Core Hamiltonian energy:                                   1708.47496370067461
  Hartree energy:                                            2615.71261992499603
  Exchange-correlation energy:                               -535.22388449568473
  Dispersion energy:                                           -1.19803071367383
  Electronic entropic energy:                                  -0.00541822990718
  Fermi energy:                                                -0.06917204115624

  Total energy:                                             -3788.87474854189622

   Calculate PDOS at iteration step                                  3
  Reached convergence in            1  iterations 

   Compute         1198    additional unoccupied KS orbitals

              ---- PDOS: start iteration on the KS states --- 
 Writing PDOS 1_3 to gopt-dosfile-ALPHA_k1-1.pdos
 Writing PDOS 1_3 to gopt-dosfile-ALPHA_k2-1.pdos

   Calculate PDOS at iteration step                                  3
  Reached convergence in            1  iterations 

   Compute         1198    additional unoccupied KS orbitals

              ---- PDOS: start iteration on the KS states --- 
 Writing PDOS 1_3 to gopt-dosfile-BETA_k1-1.pdos
 Writing PDOS 1_3 to gopt-dosfile-BETA_k2-1.pdos

  Integrated absolute spin density  :                               0.0000000000
  WARNING: S**2 computation does not yet treat fractional occupied orbitals

 ENERGY| Total FORCE_EVAL ( QS ) energy (a.u.):            -3788.874789030420743


 --------  Informations at step =     3 ------------
  Optimization Method        =                 BFGS
  Total Energy               =     -3788.8747890304
  Real energy change         =        -0.3856086532
  Predicted change in energy =        -0.3986371925
  Scaling factor             =         0.7249365438
  Step size                  =         0.4724315332
  Trust radius               =         0.4724315332
  Decrease in energy         =                  YES
  Used time                  =              526.182

  Convergence check :
  Max. step size             =         0.4724315332
  Conv. limit for step size  =         0.0030000000
  Convergence in step size   =                   NO
  RMS step size              =         0.1112768245
  Conv. limit for RMS step   =         0.0015000000
  Convergence in RMS step    =                   NO
  Max. gradient              =         0.0283560709
  Conv. limit for gradients  =         0.0004500000
  Conv. for gradients        =                   NO
  RMS gradient               =         0.0063470759
  Conv. limit for RMS grad.  =         0.0003000000
  Conv. for gradients        =                   NO
 ---------------------------------------------------

 --------------------------
 OPTIMIZATION STEP:      4
 --------------------------

 Spin 1

 Number of electrons:                                                        564
 Number of occupied orbitals:                                                575
 Number of molecular orbitals:                                              1064

 Spin 2

 Number of electrons:                                                        564
 Number of occupied orbitals:                                                575
 Number of molecular orbitals:                                              1064

 Number of orbital functions:                                               2262
 Number of independent orbital functions:                                   2262

 Extrapolation method: ASPC


 SCF WAVEFUNCTION OPTIMIZATION

  Step     Update method      Time    Convergence         Total energy    Change
  ------------------------------------------------------------------------------
     1 Broy./Diag. 0.10E+00    6.1     0.13214730     -3788.0226968033 -3.79E+03
     2 Broy./Diag. 0.10E+00    7.9     0.06741438     -3791.3923540530 -3.37E+00
     3 Broy./Diag. 0.10E+00    8.0     0.06966087     -3790.4450163178  9.47E-01
     4 Broy./Diag. 0.10E+00    8.1     0.03734260     -3788.8895687545  1.56E+00
     5 Broy./Diag. 0.10E+00    7.8     0.01601105     -3786.3093014788  2.58E+00
     6 Broy./Diag. 0.10E+00    7.9     0.01503150     -3787.1407626116 -8.31E-01
     7 Broy./Diag. 0.10E+00    8.1     0.00335903     -3787.3829316035 -2.42E-01
     8 Broy./Diag. 0.10E+00    8.2     0.00512667     -3788.2467476974 -8.64E-01
     9 Broy./Diag. 0.10E+00    8.1     0.00272322     -3788.6786285978 -4.32E-01
    10 Broy./Diag. 0.10E+00    8.4     0.00268561     -3788.8994578570 -2.21E-01
    11 Broy./Diag. 0.10E+00    7.9     0.00120419     -3788.8823562625  1.71E-02
    12 Broy./Diag. 0.10E+00    8.2     0.00114454     -3788.8782881567  4.07E-03
    13 Broy./Diag. 0.10E+00    8.2     0.00037778     -3788.8339741216  4.43E-02
    14 Broy./Diag. 0.10E+00    8.1     0.00080816     -3788.8440885199 -1.01E-02
    15 Broy./Diag. 0.10E+00    8.2     0.00048892     -3788.9079746232 -6.39E-02
    16 Broy./Diag. 0.10E+00    8.5     0.00027342     -3788.9249054930 -1.69E-02
    17 Broy./Diag. 0.10E+00    8.3     0.00026503     -3788.9462569854 -2.14E-02
    18 Broy./Diag. 0.10E+00    8.5     0.00018172     -3788.9461014130  1.56E-04
    19 Broy./Diag. 0.10E+00    8.2     0.00011994     -3788.9289206405  1.72E-02
    20 Broy./Diag. 0.10E+00    8.1     0.00007888     -3788.9254355912  3.49E-03
    21 Broy./Diag. 0.10E+00    8.2     0.00016857     -3788.9349105665 -9.47E-03
    22 Broy./Diag. 0.10E+00    8.0     0.00015242     -3788.9474352038 -1.25E-02
    23 Broy./Diag. 0.10E+00    8.4     0.00010912     -3788.9538060956 -6.37E-03
    24 Broy./Diag. 0.10E+00    8.3     0.00010265     -3788.9602285917 -6.42E-03
    25 Broy./Diag. 0.10E+00    8.4     0.00011824     -3788.9650355700 -4.81E-03
    26 Broy./Diag. 0.10E+00    8.2     0.00010460     -3788.9654159156 -3.80E-04
    27 Broy./Diag. 0.10E+00    8.1     0.00005402     -3788.9649031388  5.13E-04
    28 Broy./Diag. 0.10E+00    8.1     0.00006608     -3788.9631618937  1.74E-03
    29 Broy./Diag. 0.10E+00    8.0     0.00001336     -3788.9611839949  1.98E-03
    30 Broy./Diag. 0.10E+00    8.3     0.00001909     -3788.9615444581 -3.60E-04
    31 Broy./Diag. 0.10E+00    8.3     0.00001820     -3788.9624130776 -8.69E-04
    32 Broy./Diag. 0.10E+00    8.3     0.00001245     -3788.9621762654  2.37E-04
    33 Broy./Diag. 0.10E+00    8.3     0.00002287     -3788.9618264912  3.50E-04
    34 Broy./Diag. 0.10E+00    8.1     0.00001610     -3788.9615915132  2.35E-04
    35 Broy./Diag. 0.10E+00    8.3     0.00001291     -3788.9613943559  1.97E-04
    36 Broy./Diag. 0.10E+00    8.5     0.00000465     -3788.9614106947 -1.63E-05
    37 Broy./Diag. 0.10E+00    8.6     0.00000871     -3788.9618217610 -4.11E-04
    38 Broy./Diag. 0.10E+00    8.7     0.00000707     -3788.9623384478 -5.17E-04
    39 Broy./Diag. 0.10E+00    8.3     0.00000556     -3788.9627101432 -3.72E-04
    40 Broy./Diag. 0.10E+00    8.2     0.00000844     -3788.9628215185 -1.11E-04
    41 Broy./Diag. 0.10E+00    8.1     0.00000972     -3788.9626917317  1.30E-04
    42 Broy./Diag. 0.10E+00    8.1     0.00000540     -3788.9625495451  1.42E-04
    43 Broy./Diag. 0.10E+00    8.2     0.00000202     -3788.9626030616 -5.35E-05
    44 Broy./Diag. 0.10E+00    8.3     0.00000555     -3788.9626416834 -3.86E-05
    45 Broy./Diag. 0.10E+00    8.3     0.00000303     -3788.9627462840 -1.05E-04
    46 Broy./Diag. 0.10E+00    8.4     0.00000306     -3788.9627346971  1.16E-05
    47 Broy./Diag. 0.10E+00    8.3     0.00000498     -3788.9626600855  7.46E-05
    48 Broy./Diag. 0.10E+00    8.2     0.00000293     -3788.9625662994  9.38E-05
    49 Broy./Diag. 0.10E+00    8.0     0.00000232     -3788.9625247565  4.15E-05
    50 Broy./Diag. 0.10E+00    8.4     0.00000091     -3788.9625428865 -1.81E-05

  *** SCF run converged in    50 steps ***


  Electronic density on regular grids:      -1127.9999999998        0.0000000002
  Core density on regular grids:             1127.9999999991       -0.0000000009
  Total charge density on r-space grids:       -0.0000000007
  Total charge density g-space grids:          -0.0000000007

  Overlap energy of the core charge distribution:               0.00000000019453
  Self energy of the core charge distribution:              -7576.63499872671309
  Core Hamiltonian energy:                                   1706.67485299463783
  Hartree energy:                                            2616.91037423390253
  Exchange-correlation energy:                               -534.71752169619720
  Dispersion energy:                                           -1.19257848532910
  Electronic entropic energy:                                  -0.00267120707028
  Fermi energy:                                                -0.07060333027197

  Total energy:                                             -3788.96254288648288

   Calculate PDOS at iteration step                                  4
  Reached convergence in            1  iterations 

   Compute         1198    additional unoccupied KS orbitals

              ---- PDOS: start iteration on the KS states --- 
 Writing PDOS 1_4 to gopt-dosfile-ALPHA_k1-1.pdos
 Writing PDOS 1_4 to gopt-dosfile-ALPHA_k2-1.pdos

   Calculate PDOS at iteration step                                  4
  Reached convergence in            1  iterations 

   Compute         1198    additional unoccupied KS orbitals

              ---- PDOS: start iteration on the KS states --- 
 Writing PDOS 1_4 to gopt-dosfile-BETA_k1-1.pdos
 Writing PDOS 1_4 to gopt-dosfile-BETA_k2-1.pdos

  Integrated absolute spin density  :                               0.0000000000
  WARNING: S**2 computation does not yet treat fractional occupied orbitals

 ENERGY| Total FORCE_EVAL ( QS ) energy (a.u.):            -3788.962818457450794


 --------  Informations at step =     4 ------------
  Optimization Method        =                 BFGS
  Total Energy               =     -3788.9628184575
  Real energy change         =        -0.0880294270
  Predicted change in energy =        -0.0785964882
  Scaling factor             =         0.7249365438
  Step size                  =         0.3360134348
  Trust radius               =         0.4724315332
  Decrease in energy         =                  YES
  Used time                  =              425.116

  Convergence check :
  Max. step size             =         0.3360134348
  Conv. limit for step size  =         0.0030000000
  Convergence in step size   =                   NO
  RMS step size              =         0.0783047008
  Conv. limit for RMS step   =         0.0015000000
  Convergence in RMS step    =                   NO
  Max. gradient              =         0.0272824578
  Conv. limit for gradients  =         0.0004500000
  Conv. for gradients        =                   NO
  RMS gradient               =         0.0059587199
  Conv. limit for RMS grad.  =         0.0003000000
  Conv. for gradients        =                   NO
 ---------------------------------------------------

 --------------------------
 OPTIMIZATION STEP:      5
 --------------------------

 Spin 1

 Number of electrons:                                                        564
 Number of occupied orbitals:                                                572
 Number of molecular orbitals:                                              1064

 Spin 2

 Number of electrons:                                                        564
 Number of occupied orbitals:                                                572
 Number of molecular orbitals:                                              1064

 Number of orbital functions:                                               2262
 Number of independent orbital functions:                                   2262

 Extrapolation method: ASPC


 SCF WAVEFUNCTION OPTIMIZATION

  Step     Update method      Time    Convergence         Total energy    Change
  ------------------------------------------------------------------------------
     1 Broy./Diag. 0.10E+00    6.1     0.03341491     -3788.6491597413 -3.79E+03
     2 Broy./Diag. 0.10E+00    8.0     0.01585434     -3787.4176162419  1.23E+00
     3 Broy./Diag. 0.10E+00    8.3     0.01971763     -3787.9978318628 -5.80E-01
     4 Broy./Diag. 0.10E+00    8.3     0.01692590     -3789.4098864823 -1.41E+00
     5 Broy./Diag. 0.10E+00    8.0     0.00762555     -3789.9389626273 -5.29E-01
     6 Broy./Diag. 0.10E+00    8.1     0.00492307     -3789.6797654139  2.59E-01
     7 Broy./Diag. 0.10E+00    7.9     0.00245443     -3789.3140795068  3.66E-01
     8 Broy./Diag. 0.10E+00    7.9     0.00153820     -3789.0918140276  2.22E-01
     9 Broy./Diag. 0.10E+00    8.3     0.00092142     -3788.9992981914  9.25E-02
    10 Broy./Diag. 0.10E+00    8.5     0.00119712     -3788.9237337028  7.56E-02
    11 Broy./Diag. 0.10E+00    8.3     0.00033345     -3788.9049482058  1.88E-02
    12 Broy./Diag. 0.10E+00    8.2     0.00026870     -3788.9341715409 -2.92E-02
    13 Broy./Diag. 0.10E+00    8.2     0.00020231     -3788.9662686025 -3.21E-02
    14 Broy./Diag. 0.10E+00    8.2     0.00012888     -3788.9790655285 -1.28E-02
    15 Broy./Diag. 0.10E+00    8.2     0.00010230     -3788.9869206371 -7.86E-03
    16 Broy./Diag. 0.10E+00    7.9     0.00006258     -3788.9870725404 -1.52E-04
    17 Broy./Diag. 0.10E+00    8.1     0.00012437     -3788.9912321194 -4.16E-03
    18 Broy./Diag. 0.10E+00    8.1     0.00009388     -3789.0010429003 -9.81E-03
    19 Broy./Diag. 0.10E+00    8.2     0.00007745     -3789.0033619107 -2.32E-03
    20 Broy./Diag. 0.10E+00    8.2     0.00006298     -3789.0015656873  1.80E-03
    21 Broy./Diag. 0.10E+00    8.0     0.00004720     -3788.9989652726  2.60E-03
    22 Broy./Diag. 0.10E+00    8.5     0.00006165     -3788.9972550108  1.71E-03
    23 Broy./Diag. 0.10E+00    8.4     0.00003000     -3788.9964957275  7.59E-04
    24 Broy./Diag. 0.10E+00    8.5     0.00002445     -3788.9959141822  5.82E-04
    25 Broy./Diag. 0.10E+00    8.3     0.00002834     -3788.9960873807 -1.73E-04
    26 Broy./Diag. 0.10E+00    8.4     0.00000630     -3788.9967240804 -6.37E-04
    27 Broy./Diag. 0.10E+00    8.4     0.00002374     -3788.9974120066 -6.88E-04
    28 Broy./Diag. 0.10E+00    8.2     0.00000221     -3788.9975426180 -1.31E-04
    29 Broy./Diag. 0.10E+00    8.4     0.00001524     -3788.9978369820 -2.94E-04
    30 Broy./Diag. 0.10E+00    8.4     0.00000502     -3788.9977963572  4.06E-05
    31 Broy./Diag. 0.10E+00    8.1     0.00000864     -3788.9978108280 -1.45E-05
    32 Broy./Diag. 0.10E+00    8.0     0.00000804     -3788.9976372109  1.74E-04
    33 Broy./Diag. 0.10E+00    8.1     0.00000630     -3788.9974195305  2.18E-04
    34 Broy./Diag. 0.10E+00    8.2     0.00000413     -3788.9972819224  1.38E-04
    35 Broy./Diag. 0.10E+00    8.2     0.00000527     -3788.9972128359  6.91E-05
    36 Broy./Diag. 0.10E+00    8.2     0.00000205     -3788.9972406641 -2.78E-05
    37 Broy./Diag. 0.10E+00    8.1     0.00000230     -3788.9972429515 -2.29E-06
    38 Broy./Diag. 0.10E+00    8.1     0.00000193     -3788.9972570732 -1.41E-05
    39 Broy./Diag. 0.10E+00    8.6     0.00000142     -3788.9972723865 -1.53E-05
    40 Broy./Diag. 0.10E+00    8.4     0.00000112     -3788.9972902009 -1.78E-05
    41 Broy./Diag. 0.10E+00    8.6     0.00000063     -3788.9973179234 -2.77E-05

  *** SCF run converged in    41 steps ***


  Electronic density on regular grids:      -1127.9999999998        0.0000000002
  Core density on regular grids:             1127.9999999991       -0.0000000009
  Total charge density on r-space grids:       -0.0000000007
  Total charge density g-space grids:          -0.0000000007

  Overlap energy of the core charge distribution:               0.00000000019570
  Self energy of the core charge distribution:              -7576.63499872671309
  Core Hamiltonian energy:                                   1706.48407677883142
  Hartree energy:                                            2617.01307599823667
  Exchange-correlation energy:                               -534.66605631177561
  Dispersion energy:                                           -1.19082334612644
  Electronic entropic energy:                                  -0.00259231941171
  Fermi energy:                                                -0.06997080092292

  Total energy:                                             -3788.99731792341800

   Calculate PDOS at iteration step                                  5
  Reached convergence in            1  iterations 

   Compute         1198    additional unoccupied KS orbitals

              ---- PDOS: start iteration on the KS states --- 
 Writing PDOS 1_5 to gopt-dosfile-ALPHA_k1-1.pdos
 Writing PDOS 1_5 to gopt-dosfile-ALPHA_k2-1.pdos

   Calculate PDOS at iteration step                                  5
  Reached convergence in            1  iterations 

   Compute         1198    additional unoccupied KS orbitals

              ---- PDOS: start iteration on the KS states --- 
 Writing PDOS 1_5 to gopt-dosfile-BETA_k1-1.pdos
 Writing PDOS 1_5 to gopt-dosfile-BETA_k2-1.pdos

  Integrated absolute spin density  :                               0.0000000000
  WARNING: S**2 computation does not yet treat fractional occupied orbitals

 ENERGY| Total FORCE_EVAL ( QS ) energy (a.u.):            -3788.997351437151792


 --------  Informations at step =     5 ------------
  Optimization Method        =                 BFGS
  Total Energy               =     -3788.9973514372
  Real energy change         =        -0.0345329797
  Predicted change in energy =        -0.0219172678
  Scaling factor             =         0.7249365438
  Step size                  =         0.1524551625
  Trust radius               =         0.4724315332
  Decrease in energy         =                  YES
  Used time                  =              351.823

  Convergence check :
  Max. step size             =         0.1524551625
  Conv. limit for step size  =         0.0030000000
  Convergence in step size   =                   NO
  RMS step size              =         0.0355135373
  Conv. limit for RMS step   =         0.0015000000
  Convergence in RMS step    =                   NO
  Max. gradient              =         0.0245073217
  Conv. limit for gradients  =         0.0004500000
  Conv. for gradients        =                   NO
  RMS gradient               =         0.0053944027
  Conv. limit for RMS grad.  =         0.0003000000
  Conv. for gradients        =                   NO
 ---------------------------------------------------

 --------------------------
 OPTIMIZATION STEP:      6
 --------------------------

 Spin 1

 Number of electrons:                                                        564
 Number of occupied orbitals:                                                572
 Number of molecular orbitals:                                              1064

 Spin 2

 Number of electrons:                                                        564
 Number of occupied orbitals:                                                572
 Number of molecular orbitals:                                              1064

 Number of orbital functions:                                               2262
 Number of independent orbital functions:                                   2262

 Extrapolation method: ASPC


 SCF WAVEFUNCTION OPTIMIZATION

  Step     Update method      Time    Convergence         Total energy    Change
  ------------------------------------------------------------------------------
     1 Broy./Diag. 0.10E+00    6.3     0.05981303     -3788.5648996156 -3.79E+03
     2 Broy./Diag. 0.10E+00    8.1     0.02173321     -3787.7242031733  8.41E-01
     3 Broy./Diag. 0.10E+00    7.9     0.03597366     -3788.0627226405 -3.39E-01
     4 Broy./Diag. 0.10E+00    8.1     0.02011862     -3788.6240338383 -5.61E-01
     5 Broy./Diag. 0.10E+00    7.9     0.01175387     -3789.0635003587 -4.39E-01
     6 Broy./Diag. 0.10E+00    8.0     0.00381977     -3789.0789505184 -1.55E-02
     7 Broy./Diag. 0.10E+00    8.0     0.00350247     -3789.0041709387  7.48E-02
     8 Broy./Diag. 0.10E+00    8.2     0.00178455     -3788.9235151734  8.07E-02
     9 Broy./Diag. 0.10E+00    8.1     0.00250729     -3788.9632404167 -3.97E-02
    10 Broy./Diag. 0.10E+00    8.2     0.00089992     -3789.0313536084 -6.81E-02
    11 Broy./Diag. 0.10E+00    8.1     0.00234452     -3789.0445630288 -1.32E-02
    12 Broy./Diag. 0.10E+00    8.2     0.00109099     -3789.0495625961 -5.00E-03
    13 Broy./Diag. 0.10E+00    8.0     0.00066835     -3789.0432462604  6.32E-03
    14 Broy./Diag. 0.10E+00    8.4     0.00060475     -3789.0388322560  4.41E-03
    15 Broy./Diag. 0.10E+00    8.2     0.00016635     -3789.0339084919  4.92E-03
    16 Broy./Diag. 0.10E+00    8.2     0.00019663     -3789.0353756663 -1.47E-03
    17 Broy./Diag. 0.10E+00    8.3     0.00021900     -3789.0419813920 -6.61E-03
    18 Broy./Diag. 0.10E+00    8.3     0.00013827     -3789.0496844416 -7.70E-03
    19 Broy./Diag. 0.10E+00    8.4     0.00014812     -3789.0531322860 -3.45E-03
    20 Broy./Diag. 0.10E+00    8.5     0.00006440     -3789.0489298380  4.20E-03
    21 Broy./Diag. 0.10E+00    8.4     0.00005889     -3789.0435589793  5.37E-03
    22 Broy./Diag. 0.10E+00    8.3     0.00007817     -3789.0425100672  1.05E-03
    23 Broy./Diag. 0.10E+00    8.3     0.00006221     -3789.0444399131 -1.93E-03
    24 Broy./Diag. 0.10E+00    8.2     0.00006027     -3789.0468763208 -2.44E-03
    25 Broy./Diag. 0.10E+00    8.2     0.00005541     -3789.0475378936 -6.62E-04
    26 Broy./Diag. 0.10E+00    8.2     0.00003538     -3789.0475343976  3.50E-06
    27 Broy./Diag. 0.10E+00    8.0     0.00002295     -3789.0467926244  7.42E-04
    28 Broy./Diag. 0.10E+00    7.8     0.00001911     -3789.0458532514  9.39E-04
    29 Broy./Diag. 0.10E+00    7.9     0.00001783     -3789.0453779372  4.75E-04
    30 Broy./Diag. 0.10E+00    8.1     0.00001806     -3789.0459773575 -5.99E-04
    31 Broy./Diag. 0.10E+00    8.1     0.00001547     -3789.0471912566 -1.21E-03
    32 Broy./Diag. 0.10E+00    8.1     0.00002382     -3789.0473977139 -2.06E-04
    33 Broy./Diag. 0.10E+00    8.0     0.00001043     -3789.0469181865  4.80E-04
    34 Broy./Diag. 0.10E+00    8.1     0.00001160     -3789.0464098044  5.08E-04
    35 Broy./Diag. 0.10E+00    8.1     0.00001021     -3789.0460951641  3.15E-04
    36 Broy./Diag. 0.10E+00    8.2     0.00001268     -3789.0459382748  1.57E-04
    37 Broy./Diag. 0.10E+00    8.3     0.00000673     -3789.0462253132 -2.87E-04
    38 Broy./Diag. 0.10E+00    8.5     0.00001118     -3789.0467090874 -4.84E-04
    39 Broy./Diag. 0.10E+00    8.3     0.00000498     -3789.0469656908 -2.57E-04
    40 Broy./Diag. 0.10E+00    8.6     0.00000528     -3789.0467599279  2.06E-04
    41 Broy./Diag. 0.10E+00    8.3     0.00000494     -3789.0464272251  3.33E-04
    42 Broy./Diag. 0.10E+00    8.1     0.00000653     -3789.0463277569  9.95E-05
    43 Broy./Diag. 0.10E+00    8.1     0.00000260     -3789.0464601117 -1.32E-04
    44 Broy./Diag. 0.10E+00    8.2     0.00000322     -3789.0466408477 -1.81E-04
    45 Broy./Diag. 0.10E+00    8.5     0.00000195     -3789.0467618312 -1.21E-04
    46 Broy./Diag. 0.10E+00    8.2     0.00000229     -3789.0468292887 -6.75E-05
    47 Broy./Diag. 0.10E+00    8.4     0.00000265     -3789.0467744778  5.48E-05
    48 Broy./Diag. 0.10E+00    7.9     0.00000424     -3789.0466496280  1.25E-04
    49 Broy./Diag. 0.10E+00    8.0     0.00000154     -3789.0465806139  6.90E-05
    50 Broy./Diag. 0.10E+00    8.2     0.00000262     -3789.0466216367 -4.10E-05
    51 Broy./Diag. 0.10E+00    8.2     0.00000174     -3789.0467028755 -8.12E-05
    52 Broy./Diag. 0.10E+00    8.2     0.00000196     -3789.0467388856 -3.60E-05
    53 Broy./Diag. 0.10E+00    8.4     0.00000072     -3789.0467316716  7.21E-06

  *** SCF run converged in    53 steps ***


  Electronic density on regular grids:      -1127.9999999999        0.0000000001
  Core density on regular grids:             1127.9999999991       -0.0000000009
  Total charge density on r-space grids:       -0.0000000008
  Total charge density g-space grids:          -0.0000000008

  Overlap energy of the core charge distribution:               0.00000000024280
  Self energy of the core charge distribution:              -7576.63499872671309
  Core Hamiltonian energy:                                   1706.73502607987689
  Hartree energy:                                            2616.78935185189312
  Exchange-correlation energy:                               -534.74378311490568
  Dispersion energy:                                           -1.18866397607275
  Electronic entropic energy:                                  -0.00366379918039
  Fermi energy:                                                -0.06712401042157

  Total energy:                                             -3789.04673167155124

   Calculate PDOS at iteration step                                  6
  Reached convergence in            1  iterations 

   Compute         1198    additional unoccupied KS orbitals

              ---- PDOS: start iteration on the KS states --- 
 Writing PDOS 1_6 to gopt-dosfile-ALPHA_k1-1.pdos
 Writing PDOS 1_6 to gopt-dosfile-ALPHA_k2-1.pdos

   Calculate PDOS at iteration step                                  6
  Reached convergence in            1  iterations 

   Compute         1198    additional unoccupied KS orbitals

              ---- PDOS: start iteration on the KS states --- 
 Writing PDOS 1_6 to gopt-dosfile-BETA_k1-1.pdos
 Writing PDOS 1_6 to gopt-dosfile-BETA_k2-1.pdos

  Integrated absolute spin density  :                               0.0000000000
  WARNING: S**2 computation does not yet treat fractional occupied orbitals

 ENERGY| Total FORCE_EVAL ( QS ) energy (a.u.):            -3789.046712611231669


 --------  Informations at step =     6 ------------
  Optimization Method        =                 BFGS
  Total Energy               =     -3789.0467126112
  Real energy change         =        -0.0493611741
  Predicted change in energy =        -0.0422638570
  Scaling factor             =         0.7249365438
  Step size                  =         0.3622887317
  Trust radius               =         0.4724315332
  Decrease in energy         =                  YES
  Used time                  =              448.000

  Convergence check :
  Max. step size             =         0.3622887317
  Conv. limit for step size  =         0.0030000000
  Convergence in step size   =                   NO
  RMS step size              =         0.0804104234
  Conv. limit for RMS step   =         0.0015000000
  Convergence in RMS step    =                   NO
  Max. gradient              =         0.0214728410
  Conv. limit for gradients  =         0.0004500000
  Conv. for gradients        =                   NO
  RMS gradient               =         0.0038671867
  Conv. limit for RMS grad.  =         0.0003000000
  Conv. for gradients        =                   NO
 ---------------------------------------------------

 --------------------------
 OPTIMIZATION STEP:      7
 --------------------------

 Spin 1

 Number of electrons:                                                        564
 Number of occupied orbitals:                                                574
 Number of molecular orbitals:                                              1064

 Spin 2

 Number of electrons:                                                        564
 Number of occupied orbitals:                                                574
 Number of molecular orbitals:                                              1064

 Number of orbital functions:                                               2262
 Number of independent orbital functions:                                   2262

 Extrapolation method: ASPC


 SCF WAVEFUNCTION OPTIMIZATION

  Step     Update method      Time    Convergence         Total energy    Change
  ------------------------------------------------------------------------------
     1 Broy./Diag. 0.10E+00    6.3     0.05231168     -3788.9554691862 -3.79E+03
     2 Broy./Diag. 0.10E+00    8.1     0.01362787     -3786.9540557615  2.00E+00
     3 Broy./Diag. 0.10E+00    8.1     0.02523951     -3787.6015068433 -6.47E-01
     4 Broy./Diag. 0.10E+00    8.0     0.01731424     -3788.7954861191 -1.19E+00
     5 Broy./Diag. 0.10E+00    8.1     0.00784640     -3789.2823431567 -4.87E-01
     6 Broy./Diag. 0.10E+00    8.0     0.00566803     -3789.6079554479 -3.26E-01
     7 Broy./Diag. 0.10E+00    8.2     0.00620213     -3789.4228551574  1.85E-01
     8 Broy./Diag. 0.10E+00    8.0     0.00177059     -3789.1931734111  2.30E-01
     9 Broy./Diag. 0.10E+00    8.0     0.00274754     -3789.1007455981  9.24E-02
    10 Broy./Diag. 0.10E+00    8.1     0.00148189     -3789.0365253380  6.42E-02
    11 Broy./Diag. 0.10E+00    8.2     0.00154115     -3789.0248639091  1.17E-02
    12 Broy./Diag. 0.10E+00    8.4     0.00062221     -3789.0323835722 -7.52E-03
    13 Broy./Diag. 0.10E+00    8.4     0.00034789     -3789.0428541796 -1.05E-02
    14 Broy./Diag. 0.10E+00    8.3     0.00023019     -3789.0563223418 -1.35E-02
    15 Broy./Diag. 0.10E+00    8.3     0.00014004     -3789.0753787571 -1.91E-02
    16 Broy./Diag. 0.10E+00    8.2     0.00010102     -3789.0747664126  6.12E-04
    17 Broy./Diag. 0.10E+00    8.1     0.00010465     -3789.0651352342  9.63E-03
    18 Broy./Diag. 0.10E+00    8.3     0.00009192     -3789.0570596307  8.08E-03
    19 Broy./Diag. 0.10E+00    8.1     0.00007011     -3789.0591997378 -2.14E-03
    20 Broy./Diag. 0.10E+00    8.2     0.00010312     -3789.0667725294 -7.57E-03
    21 Broy./Diag. 0.10E+00    8.2     0.00005680     -3789.0725803202 -5.81E-03
    22 Broy./Diag. 0.10E+00    8.4     0.00008434     -3789.0713977145  1.18E-03
    23 Broy./Diag. 0.10E+00    8.5     0.00002856     -3789.0679721206  3.43E-03
    24 Broy./Diag. 0.10E+00    8.3     0.00004834     -3789.0643914399  3.58E-03
    25 Broy./Diag. 0.10E+00    8.4     0.00003416     -3789.0619365835  2.45E-03
    26 Broy./Diag. 0.10E+00    8.4     0.00002329     -3789.0618137002  1.23E-04
    27 Broy./Diag. 0.10E+00    8.2     0.00001711     -3789.0627349943 -9.21E-04
    28 Broy./Diag. 0.10E+00    8.0     0.00002154     -3789.0636139718 -8.79E-04
    29 Broy./Diag. 0.10E+00    8.1     0.00001113     -3789.0628832335  7.31E-04
    30 Broy./Diag. 0.10E+00    8.3     0.00001650     -3789.0614113822  1.47E-03
    31 Broy./Diag. 0.10E+00    8.0     0.00001120     -3789.0602410414  1.17E-03
    32 Broy./Diag. 0.10E+00    8.0     0.00002443     -3789.0607094779 -4.68E-04
    33 Broy./Diag. 0.10E+00    8.2     0.00001371     -3789.0618319867 -1.12E-03
    34 Broy./Diag. 0.10E+00    8.1     0.00001261     -3789.0626687716 -8.37E-04
    35 Broy./Diag. 0.10E+00    8.4     0.00000940     -3789.0629919790 -3.23E-04
    36 Broy./Diag. 0.10E+00    8.1     0.00001700     -3789.0629367656  5.52E-05
    37 Broy./Diag. 0.10E+00    8.2     0.00000512     -3789.0626594455  2.77E-04
    38 Broy./Diag. 0.10E+00    8.3     0.00001054     -3789.0624003406  2.59E-04
    39 Broy./Diag. 0.10E+00    8.1     0.00000342     -3789.0623936141  6.73E-06
    40 Broy./Diag. 0.10E+00    8.2     0.00000630     -3789.0625238103 -1.30E-04
    41 Broy./Diag. 0.10E+00    8.2     0.00000534     -3789.0625964395 -7.26E-05
    42 Broy./Diag. 0.10E+00    8.5     0.00000462     -3789.0623287452  2.68E-04
    43 Broy./Diag. 0.10E+00    8.6     0.00000309     -3789.0620158279  3.13E-04
    44 Broy./Diag. 0.10E+00    8.5     0.00000541     -3789.0618266053  1.89E-04
    45 Broy./Diag. 0.10E+00    8.5     0.00000280     -3789.0617561390  7.05E-05
    46 Broy./Diag. 0.10E+00    8.4     0.00000898     -3789.0618239113 -6.78E-05
    47 Broy./Diag. 0.10E+00    8.2     0.00000166     -3789.0619265312 -1.03E-04
    48 Broy./Diag. 0.10E+00    8.1     0.00000409     -3789.0619806377 -5.41E-05
    49 Broy./Diag. 0.10E+00    8.5     0.00000222     -3789.0619481490  3.25E-05
    50 Broy./Diag. 0.10E+00    8.2     0.00000294     -3789.0619104725  3.77E-05
    51 Broy./Diag. 0.10E+00    8.2     0.00000173     -3789.0618851796  2.53E-05
    52 Broy./Diag. 0.10E+00    8.3     0.00000137     -3789.0619389006 -5.37E-05
    53 Broy./Diag. 0.10E+00    8.1     0.00000128     -3789.0619951437 -5.62E-05
    54 Broy./Diag. 0.10E+00    8.0     0.00000180     -3789.0619959573 -8.14E-07
    55 Broy./Diag. 0.10E+00    8.0     0.00000084     -3789.0619578209  3.81E-05

  *** SCF run converged in    55 steps ***


  Electronic density on regular grids:      -1128.0000000000        0.0000000000
  Core density on regular grids:             1127.9999999991       -0.0000000009
  Total charge density on r-space grids:       -0.0000000009
  Total charge density g-space grids:          -0.0000000009

  Overlap energy of the core charge distribution:               0.00000000028361
  Self energy of the core charge distribution:              -7576.63499872671309
  Core Hamiltonian energy:                                   1707.31924054658316
  Hartree energy:                                            2616.37138026499542
  Exchange-correlation energy:                               -534.92312327052264
  Dispersion energy:                                           -1.19016466596445
  Electronic entropic energy:                                  -0.00429198453529
  Fermi energy:                                                -0.06671654098780

  Total energy:                                             -3789.06195782094073

   Calculate PDOS at iteration step                                  7
  Reached convergence in            1  iterations 

   Compute         1198    additional unoccupied KS orbitals

              ---- PDOS: start iteration on the KS states --- 
 Writing PDOS 1_7 to gopt-dosfile-ALPHA_k1-1.pdos
 Writing PDOS 1_7 to gopt-dosfile-ALPHA_k2-1.pdos

   Calculate PDOS at iteration step                                  7
  Reached convergence in            1  iterations 

   Compute         1198    additional unoccupied KS orbitals

              ---- PDOS: start iteration on the KS states --- 
 Writing PDOS 1_7 to gopt-dosfile-BETA_k1-1.pdos
 Writing PDOS 1_7 to gopt-dosfile-BETA_k2-1.pdos

  Integrated absolute spin density  :                               0.0000000000
  WARNING: S**2 computation does not yet treat fractional occupied orbitals

 ENERGY| Total FORCE_EVAL ( QS ) energy (a.u.):            -3789.061822479542570


 --------  Informations at step =     7 ------------
  Optimization Method        =                 BFGS
  Total Energy               =     -3789.0618224795
  Real energy change         =        -0.0151098683
  Predicted change in energy =        -0.0112287123
  Scaling factor             =         0.7249365438
  Step size                  =         0.0913379751
  Trust radius               =         0.4724315332
  Decrease in energy         =                  YES
  Used time                  =              466.520

  Convergence check :
  Max. step size             =         0.0913379751
  Conv. limit for step size  =         0.0030000000
  Convergence in step size   =                   NO
  RMS step size              =         0.0287474243
  Conv. limit for RMS step   =         0.0015000000
  Convergence in RMS step    =                   NO
  Max. gradient              =         0.0127593410
  Conv. limit for gradients  =         0.0004500000
  Conv. for gradients        =                   NO
  RMS gradient               =         0.0026282770
  Conv. limit for RMS grad.  =         0.0003000000
  Conv. for gradients        =                   NO
 ---------------------------------------------------

 --------------------------
 OPTIMIZATION STEP:      8
 --------------------------

 Spin 1

 Number of electrons:                                                        564
 Number of occupied orbitals:                                                574
 Number of molecular orbitals:                                              1064

 Spin 2

 Number of electrons:                                                        564
 Number of occupied orbitals:                                                574
[...]
 flops  544 x   96 x  195             48881664000     100.0%      0.0%      0.0%
 flops  566 x   96 x  195             50858496000     100.0%      0.0%      0.0%
 flops  264 x   96 x   96             52553318400     100.0%      0.0%      0.0%
 flops  559 x  110 x  192             56669184000     100.0%      0.0%      0.0%
 flops  288 x   96 x   96             57330892800     100.0%      0.0%      0.0%
 flops  302 x   96 x  208             57891225600     100.0%      0.0%      0.0%
 flops  572 x  110 x  192             57987072000     100.0%      0.0%      0.0%
 flops  576 x  110 x  192             58392576000     100.0%      0.0%      0.0%
 flops  320 x   96 x  208             61341696000     100.0%      0.0%      0.0%
 flops  559 x  128 x  192             65942323200     100.0%      0.0%      0.0%
 flops  572 x  128 x  192             67475865600     100.0%      0.0%      0.0%
 flops  576 x  128 x  192             67947724800     100.0%      0.0%      0.0%
 flops  256 x   96 x  169             75756994560     100.0%      0.0%      0.0%
 flops  544 x  192 x  169             84728217600     100.0%      0.0%      0.0%
 flops  256 x   96 x  195             87411916800     100.0%      0.0%      0.0%
 flops  288 x   96 x  169             87469424640     100.0%      0.0%      0.0%
 flops  566 x  192 x  169             88154726400     100.0%      0.0%      0.0%
 flops  576 x   96 x  169             89712230400     100.0%      0.0%      0.0%
 flops  264 x   96 x  208             96153108480     100.0%      0.0%      0.0%
 flops  544 x  192 x  195             97763328000     100.0%      0.0%      0.0%
 flops  288 x   96 x  195            100926259200     100.0%      0.0%      0.0%
 flops  566 x  192 x  195            101716992000     100.0%      0.0%      0.0%
 flops  256 x   96 x   96            101921587200     100.0%      0.0%      0.0%
 flops  576 x   96 x  195            103514112000     100.0%      0.0%      0.0%
 flops  544 x   96 x  208            104280883200     100.0%      0.0%      0.0%
 flops  566 x   96 x  208            108498124800     100.0%      0.0%      0.0%
 flops  576 x  192 x  169            179424460800     100.0%      0.0%      0.0%
 flops  256 x   96 x  208            186478755840     100.0%      0.0%      0.0%
 flops  576 x  192 x  195            207028224000     100.0%      0.0%      0.0%
 flops  544 x  192 x  208            208561766400     100.0%      0.0%      0.0%
 flops  288 x   96 x  208            215309352960     100.0%      0.0%      0.0%
 flops  566 x  192 x  208            216996249600     100.0%      0.0%      0.0%
 flops   13 x   13 x   72            218836564128       0.0%    100.0%      0.0%
 flops  559 x   72 x  169            218967151104     100.0%      0.0%      0.0%
 flops  576 x   96 x  208            220830105600     100.0%      0.0%      0.0%
 flops  559 x   96 x   96            222555340800     100.0%      0.0%      0.0%
 flops  572 x   72 x  169            224059410432     100.0%      0.0%      0.0%
 flops  572 x   96 x   96            227731046400     100.0%      0.0%      0.0%
 flops  544 x   96 x  192            240648192000     100.0%      0.0%      0.0%
 flops  566 x   96 x  192            250380288000     100.0%      0.0%      0.0%
 flops  559 x   72 x  195            252654405120     100.0%      0.0%      0.0%
 flops  572 x   72 x  195            258530088960     100.0%      0.0%      0.0%
 flops   26 x   13 x   72            312706502784       0.0%    100.0%      0.0%
 flops   13 x   26 x   72            312853297536       0.0%    100.0%      0.0%
 flops   26 x   26 x   72            362725549056       0.0%    100.0%      0.0%
 flops   13 x   13 x   64            389042780672       0.0%    100.0%      0.0%
 flops  559 x   64 x  169            389274935296     100.0%      0.0%      0.0%
 flops  572 x   64 x  169            398327840768     100.0%      0.0%      0.0%
 flops  576 x  192 x  208            441660211200     100.0%      0.0%      0.0%
 flops  559 x   64 x  195            449163386880     100.0%      0.0%      0.0%
 flops  572 x   64 x  195            459609047040     100.0%      0.0%      0.0%
 flops  559 x   96 x  192            494567424000     100.0%      0.0%      0.0%
 flops  572 x   96 x  192            506068992000     100.0%      0.0%      0.0%
 flops  576 x   96 x  192            509607936000     100.0%      0.0%      0.0%
 flops  559 x   72 x  208            538996064256     100.0%      0.0%      0.0%
 flops  572 x   72 x  208            551530856448     100.0%      0.0%      0.0%
 flops   26 x   13 x   64            555922671616       0.0%    100.0%      0.0%
 flops   13 x   26 x   64            556183640064       0.0%    100.0%      0.0%
 flops   26 x   26 x   64            644845420544       0.0%    100.0%      0.0%
 flops  559 x   64 x  208            958215225344     100.0%      0.0%      0.0%
 flops  572 x   64 x  208            980499300352     100.0%      0.0%      0.0%
 flops   13 x   32 x   13           2344876914432       0.0%    100.0%      0.0%
 flops   13 x   13 x   96           2626038769536       0.0%    100.0%      0.0%
 flops  559 x   96 x  169           2627605813248     100.0%      0.0%      0.0%
 flops  572 x   96 x  169           2688712925184     100.0%      0.0%      0.0%
 flops  559 x   96 x  195           3031852861440     100.0%      0.0%      0.0%
 flops  572 x   96 x  195           3102361067520     100.0%      0.0%      0.0%
 flops  559 x  182 x  169           3321001791744     100.0%      0.0%      0.0%
 flops  572 x  182 x  169           3398234391552     100.0%      0.0%      0.0%
 flops   26 x   32 x   13           3426688302336       0.0%    100.0%      0.0%
 flops   13 x   32 x   26           3426688302336       0.0%    100.0%      0.0%
 flops  559 x  195 x  169           3558216205440     100.0%      0.0%      0.0%
 flops  572 x  195 x  169           3640965419520     100.0%      0.0%      0.0%
 flops   26 x   13 x   96           3752478033408       0.0%    100.0%      0.0%
 flops   13 x   26 x   96           3754239570432       0.0%    100.0%      0.0%
 flops  559 x  182 x  195           3831925144320     100.0%      0.0%      0.0%
 flops   26 x   32 x   26           3880309049344       0.0%    100.0%      0.0%
 flops  572 x  182 x  195           3921039682560     100.0%      0.0%      0.0%
 flops  559 x  195 x  195           4105634083200     100.0%      0.0%      0.0%
 flops  572 x  195 x  195           4201113945600     100.0%      0.0%      0.0%
 flops   26 x   26 x   96           4352706588672       0.0%    100.0%      0.0%
 flops   13 x   26 x   13           6136844034048       0.0%    100.0%      0.0%
 flops  559 x   96 x  208           6467952771072     100.0%      0.0%      0.0%
 flops   13 x   13 x   13           6575190036480       0.0%    100.0%      0.0%
 flops  572 x   96 x  208           6618370277376     100.0%      0.0%      0.0%
 flops  559 x  182 x  208           8174773641216     100.0%      0.0%      0.0%
 flops  572 x  182 x  208           8364884656128     100.0%      0.0%      0.0%
 flops  559 x  195 x  208           8758686044160     100.0%      0.0%      0.0%
 flops   26 x   26 x   13           8961909247200       0.0%    100.0%      0.0%
 flops   13 x   26 x   26           8961909247200       0.0%    100.0%      0.0%
 flops  572 x  195 x  208           8962376417280     100.0%      0.0%      0.0%
 flops   26 x   13 x   13           9602045622000       0.0%    100.0%      0.0%
 flops   13 x   13 x   26           9602045622000       0.0%    100.0%      0.0%
 flops   26 x   26 x   26          10143147845376       0.0%    100.0%      0.0%
 flops   26 x   13 x   26          10867658405760       0.0%    100.0%      0.0%
 flops total                       260.757549E+12      60.9%     39.1%      0.0%
 flops max/rank                      5.892418E+12      60.3%     39.7%      0.0%
 matmuls inhomo. stacks                   1660416     100.0%      0.0%      0.0%
 matmuls total                         7261070744       0.1%     99.9%      0.0%
 number of processed stacks              37250464      14.1%     85.9%      0.0%
 average stack size                                     1.0     226.8       0.0
 marketing flops                   287.397066E+12
 -------------------------------------------------------------------------------
 # multiplications                          19530
 max memory usage/rank             961.429504E+06
 # max total images/rank                        3
 # MPI messages exchanged                41247360
 # MPI messages filtered                        0
 MPI messages size (elements):
  total size                         1.599358E+12
  min size                           0.000000E+00
  max size                         127.296000E+03
  average size                      38.774805E+03
 MPI breakdown and total messages size (bytes):
             size <=      128             1188000                        0
       128 < size <=     8192                   0                        0
      8192 < size <=    32768               79200               2010835200
     32768 < size <=   131072             6391704             682918988928
    131072 < size <=  4194304            33588456           12112766532064
   4194304 < size <= 16777216                   0                        0
  16777216 < size                               0                        0
 -------------------------------------------------------------------------------
 Warning: using a non-square number of MPI ranks might lead to poor performance.
          used ranks: 48
          suggested : 49 100
 -------------------------------------------------------------------------------

 MEMORY| Estimated peak process memory [MiB]                                 917

 -------------------------------------------------------------------------------
 -                                                                             -
 -                         MESSAGE PASSING PERFORMANCE                         -
 -                                                                             -
 -------------------------------------------------------------------------------

 ROUTINE             CALLS  TOT TIME [s]  AVE VOLUME [Bytes]  PERFORMANCE [MB/s]
 MP_Group                6         0.000
 MP_Bcast             7885         0.054              64231.             9412.54
 MP_Allreduce       368909       503.405              13348.                9.78
 MP_Sync              4506         0.265
 MP_Alltoall        455029      3894.390            4582360.              535.41
 MP_SendRecv         11092        -0.108               2024.                0.00
 MP_ISendRecv      1168326         2.775              78021.            32848.19
 MP_Wait           3606051       607.681
 MP_comm_split        4501         6.040
 MP_ISend          2069652        12.747             241139.            39153.18
 MP_IRecv          2069652         3.906             240978.           127674.84
 MP_Recv              9210         1.939             542972.             2578.91
 MP_Memory         1937968         8.267
 -------------------------------------------------------------------------------


 -------------------------------------------------------------------------------
 -                                                                             -
 -                           R E F E R E N C E S                               -
 -                                                                             -
 -------------------------------------------------------------------------------
 
 CP2K version 4.1, the CP2K developers group (2016).
 CP2K is freely available from https://www.cp2k.org/ .

 Schuett, Ole; Messmer, Peter; Hutter, Juerg; VandeVondele, Joost. 
 Electronic Structure Calculations on Graphics Processing Units, John Wiley & Sons, Ltd, 173-190 (2016). 
 GPU-Accelerated Sparse Matrix-Matrix Multiplication for Linear Scaling Density Functional Theory.
 http://dx.doi.org/10.1002/9781118670712.ch8


 Borstnik, U; VandeVondele, J; Weber, V; Hutter, J. 
 PARALLEL COMPUTING, 40 (5-6), 47-58 (2014). 
 Sparse matrix multiplication: The distributed block-compressed sparse
 row library.
 http://dx.doi.org/10.1016/j.parco.2014.03.012


 Hutter, J; Iannuzzi, M; Schiffmann, F; VandeVondele, J. 
 WILEY INTERDISCIPLINARY REVIEWS-COMPUTATIONAL MOLECULAR SCIENCE, 4 (1), 15-25 (2014). 
 CP2K: atomistic simulations of condensed matter systems.
 http://dx.doi.org/10.1002/wcms.1159


 Grimme, S; Ehrlich, S; Goerigk, L. 
 JOURNAL OF COMPUTATIONAL CHEMISTRY, 32, 1456 (2011). 
 Effect of the damping function in dispersion corrected density functional theory.
 http://dx.doi.org/10.1002/jcc.21759


 Grimme, S; Antony, J; Ehrlich, S; Krieg, H. 
 JOURNAL OF CHEMICAL PHYSICS, 132 (15), 154104 (2010). 
 A consistent and accurate ab initio parametrization of density
 functional dispersion correction (DFT-D) for the 94 elements H-Pu.
 http://dx.doi.org/10.1063/1.3382344


 VandeVondele, J; Hutter, J. 
 JOURNAL OF CHEMICAL PHYSICS, 127 (11), 114105 (2007). 
 Gaussian basis sets for accurate calculations on molecular systems in
 gas and condensed phases.
 http://dx.doi.org/10.1063/1.2770708


 Krack, M. 
 THEORETICAL CHEMISTRY ACCOUNTS, 114 (1-3), 145-152 (2005). 
 Pseudopotentials for H to Kr optimized for gradient-corrected
 exchange-correlation functionals.
 http://dx.doi.org/10.1007/s00214-005-0655-y


 VandeVondele, J; Krack, M; Mohamed, F; Parrinello, M; Chassaing, T;
 Hutter, J. COMPUTER PHYSICS COMMUNICATIONS, 167 (2), 103-128 (2005). 
 QUICKSTEP: Fast and accurate density functional calculations using a
 mixed Gaussian and plane waves approach.
 http://dx.doi.org/10.1016/j.cpc.2004.12.014


 Kolafa, J. 
 JOURNAL OF COMPUTATIONAL CHEMISTRY, 25 (3), 335-342 (2004). 
 Time-reversible always stable predictor-corrector method for molecular dynamics of polarizable molecules.
 http://dx.doi.org/10.1002/jcc.10385


 VandeVondele, J; Hutter, J. 
 JOURNAL OF CHEMICAL PHYSICS, 118 (10), 4365-4369 (2003). 
 An efficient orbital transformation method for electronic structure
 calculations.
 http://dx.doi.org/10.1063/1.1543154


 Hartwigsen, C; Goedecker, S; Hutter, J. 
 PHYSICAL REVIEW B, 58 (7), 3641-3662 (1998). 
 Relativistic separable dual-space Gaussian pseudopotentials from H to Rn.
 http://dx.doi.org/10.1103/PhysRevB.58.3641


 Lippert, G; Hutter, J; Parrinello, M. 
 MOLECULAR PHYSICS, 92 (3), 477-487 (1997). 
 A hybrid Gaussian and plane wave density functional scheme.
 http://dx.doi.org/10.1080/002689797170220


 Perdew, JP; Burke, K; Ernzerhof, M. 
 PHYSICAL REVIEW LETTERS, 77 (18), 3865-3868 (1996). 
 Generalized gradient approximation made simple.
 http://dx.doi.org/10.1103/PhysRevLett.77.3865


 Goedecker, S; Teter, M; Hutter, J. 
 PHYSICAL REVIEW B, 54 (3), 1703-1710 (1996). 
 Separable dual-space Gaussian pseudopotentials.
 http://dx.doi.org/10.1103/PhysRevB.54.1703


 -------------------------------------------------------------------------------
 -                                                                             -
 -                                T I M I N G                                  -
 -                                                                             -
 -------------------------------------------------------------------------------
 SUBROUTINE                       CALLS  ASD         SELF TIME        TOTAL TIME
                                MAXIMUM       AVERAGE  MAXIMUM  AVERAGE  MAXIMUM
 CP2K                                 1  1.0     0.04     0.06 15997.37 15997.37
 cp_geo_opt                           1  2.0     0.00     0.00 15996.49 15996.49
 geoopt_bfgs                          1  3.0     0.01     0.02 15996.49 15996.49
 cp_eval_at                          60  4.0     0.01     0.26 15992.45 15992.68
 qs_forces                           59  5.0     0.00     0.01 15926.46 15926.46
 qs_energies                         60  6.0     0.00     0.00 15727.54 15727.58
 scf_env_do_scf                      60  7.0     0.00     0.01 15242.82 15249.37
 scf_env_do_scf_inner_loop         2012  8.0     0.08     0.39 15242.41 15248.97
 rebuild_ks_matrix                 2071  9.9     0.01     0.01  7787.96  7790.00
 qs_ks_build_kohn_sham_matrix      2071 10.9     0.22     0.26  7787.95  7789.99
 qs_ks_update_qs_env               2012  9.0     0.02     0.02  7552.55  7556.13
 pw_transfer                      84745 13.5     3.99     6.23  7009.24  7306.46
 fft_wrap_pw1pw2                  80603 14.5     0.76     1.08  6992.08  7291.80
 fft_wrap_pw1pw2_280              47459 15.5   204.11   299.30  6656.58  6948.24
 fft3d_ps                         80603 16.5  2717.41  2883.38  6156.66  6588.40
 qs_vxc_create                     2071 11.9     0.03     0.05  5306.90  5316.59
 xc_vxc_pw_create                  2071 12.9    53.91    67.99  5306.87  5316.57
 qs_scf_new_mos                    2012  9.0     0.03     0.04  3864.29  3866.31
 mp_alltoall_z22v                 80603 18.5  3095.75  3781.99  3095.75  3781.99
 eigensolver_dbcsr                 4024 10.0     0.22     0.33  3688.23  3690.18
 cp_fm_syevd                       4501 11.0   611.57  3327.38  3338.59  3345.68
 cp_fm_syevd_base                  4501 12.0  2713.51  3288.20  2713.51  3288.20
 xc_rho_set_and_dset_create        2071 13.9    24.28    30.20  2643.44  2779.26
 qs_rho_update_rho                 2072  9.0     0.01     0.02  2499.76  2502.64
 calculate_rho_elec                4144 10.0   590.89   765.53  2499.74  2502.63
 sum_up_and_integrate              2071 11.9     6.23     9.11  2111.14  2113.37
 integrate_v_rspace                4142 12.9   690.32   889.67  2104.89  2109.01
 x_to_yz                          43255 18.0   211.26   294.90  1856.97  2082.90
 yz_to_x                          37348 17.0   130.89   176.72  1580.93  1970.16
 density_rs2pw                     4144 11.0     0.16     0.22  1772.88  1898.06
 gspace_mixing                     1952  9.0    10.03    11.43  1368.98  1368.99
 potential_pw2rs                   4142 13.9     0.63     0.71  1137.93  1142.02
 rs_pw_transfer                   41549 13.5     0.51     0.67   909.72  1029.66
 xc_functional_eval                2071 14.9     0.02     0.03   733.90   868.69
 pbe_lsd_eval                      2071 15.9   733.88   868.67   733.88   868.67
 broyden_mixing                    1952 10.0   517.94   717.01   735.26   741.74
 mp_alltoall_d11v                164074 13.7   443.11   591.30   443.11   591.30
 mp_waitany                      200292 15.4   424.64   575.94   424.64   575.94
 dbcsr_multiply_generic           19530 11.9     0.90     1.05   533.44   551.20
 rs_distribute_matrix              8404 12.4     8.44    18.64   331.68   474.40
 rs_pw_transfer_RS2PW_280          4204 13.0    84.37   107.10   275.51   452.93
 multiply_cannon                  19530 12.9     2.43     3.07   406.80   435.19
 mp_waitall_1                   3405759 15.3   353.59   417.21   353.59   417.21
 pw_scatter_p                     43255 17.0   323.71   392.10   323.71   392.10
 pw_gather_p                      37348 16.0   299.85   332.67   299.85   332.67
 -------------------------------------------------------------------------------

 The number of warnings for this run is : 1
 
 -------------------------------------------------------------------------------
  **** **** ******  **  PROGRAM ENDED AT                 2017-05-20 05:58:08.375
 ***** ** ***  *** **   PROGRAM RAN ON                                      c663
 **    ****   ******    PROGRAM RAN BY                                  jagermar
 ***** **    ** ** **   PROGRAM PROCESS ID                                 27529
  **** **  *******  **  PROGRAM STOPPED IN /wrk/jagermar/DONOTREMOVE/critcat/mos
                                           s/cp2k/single_tri-hex/MoS2_type2H_clu
                                           stertypen6cut0s0_pristine_Hn1_cnstr_v
                                           er3_MJ20170509/n9_cut1_s50
