 DBCSR| Multiplication driver                                                SMM
 DBCSR| Multrec recursion limit                                              512
 DBCSR| Multiplication stack size                                           1000
 DBCSR| Multiplication size stacks                                             3
 DBCSR| Use subcommunicators                                                   T
 DBCSR| Use MPI combined types                                                 F
 DBCSR| Use MPI memory allocation                                              T
 DBCSR| Use Communication thread                                               T
 DBCSR| Communication thread load                                             87


  **** **** ******  **  PROGRAM STARTED AT               2016-04-25 14:43:55.794
 ***** ** ***  *** **   PROGRAM STARTED ON                   lauri-Lenovo-Z50-70
 **    ****   ******    PROGRAM STARTED BY                                 lauri
 ***** **    ** ** **   PROGRAM PROCESS ID                                 17857
  **** **  *******  **  PROGRAM STARTED IN /home/lauri/Dropbox/nomad-dev/nomad-l
                                           ab-base/parsers/cp2k/test/unittests/c
                                           p2k_2.6.2/configuration_periodic_dime
                                           nsions/z

 CP2K| version string:                                        CP2K version 2.6.2
 CP2K| source code revision number:                                    svn:15893
 CP2K| is freely available from                             http://www.cp2k.org/
 CP2K| Program compiled at                           ke 4.11.2015 08.48.42 +0200
 CP2K| Program compiled on                                   lauri-Lenovo-Z50-70
 CP2K| Program compiled for                          Linux-x86-64-gfortran_basic
 CP2K| Input file name                                                     z.inp

 GLOBAL| Force Environment number                                              1
 GLOBAL| Basis set file name                                     ../../BASIS_SET
 GLOBAL| Geminal file name                                         BASIS_GEMINAL
 GLOBAL| Potential file name                                ../../GTH_POTENTIALS
 GLOBAL| MM Potential file name                                     MM_POTENTIAL
 GLOBAL| Coordinate file name                                      __STD_INPUT__
 GLOBAL| Method name                                                        CP2K
 GLOBAL| Project name                                                    si_bulk
 GLOBAL| Preferred FFT library                                             FFTW3
 GLOBAL| Preferred diagonalization lib.                                       SL
 GLOBAL| Run type                                                   ENERGY_FORCE
 GLOBAL| All-to-all communication in single precision                          F
 GLOBAL| FFTs using library dependent lengths                                  F
 GLOBAL| Global print level                                               MEDIUM
 GLOBAL| Total number of message passing processes                             1
 GLOBAL| Number of threads for this process                                    1
 GLOBAL| This output is from process                                           0

 MEMORY| system memory details [Kb]
 MEMORY|                        rank 0           min           max       average
 MEMORY| MemTotal              8070380       8070380       8070380       8070380
 MEMORY| MemFree               2492580       2492580       2492580       2492580
 MEMORY| Buffers                938660        938660        938660        938660
 MEMORY| Cached                2253472       2253472       2253472       2253472
 MEMORY| Slab                   506400        506400        506400        506400
 MEMORY| SReclaimable           465488        465488        465488        465488
 MEMORY| MemLikelyFree         6150200       6150200       6150200       6150200


 *** Fundamental physical constants (SI units) ***

 *** Literature: B. J. Mohr and B. N. Taylor,
 ***             CODATA recommended values of the fundamental physical
 ***             constants: 2006, Web Version 5.1
 ***             http://physics.nist.gov/constants

 Speed of light in vacuum [m/s]                             2.99792458000000E+08
 Magnetic constant or permeability of vacuum [N/A**2]       1.25663706143592E-06
 Electric constant or permittivity of vacuum [F/m]          8.85418781762039E-12
 Planck constant (h) [J*s]                                  6.62606896000000E-34
 Planck constant (h-bar) [J*s]                              1.05457162825177E-34
 Elementary charge [C]                                      1.60217648700000E-19
 Electron mass [kg]                                         9.10938215000000E-31
 Electron g factor [ ]                                     -2.00231930436220E+00
 Proton mass [kg]                                           1.67262163700000E-27
 Fine-structure constant                                    7.29735253760000E-03
 Rydberg constant [1/m]                                     1.09737315685270E+07
 Avogadro constant [1/mol]                                  6.02214179000000E+23
 Boltzmann constant [J/K]                                   1.38065040000000E-23
 Atomic mass unit [kg]                                      1.66053878200000E-27
 Bohr radius [m]                                            5.29177208590000E-11

 *** Conversion factors ***

 [u] -> [a.u.]                                              1.82288848426455E+03
 [Angstrom] -> [Bohr] = [a.u.]                              1.88972613288564E+00
 [a.u.] = [Bohr] -> [Angstrom]                              5.29177208590000E-01
 [a.u.] -> [s]                                              2.41888432650478E-17
 [a.u.] -> [fs]                                             2.41888432650478E-02
 [a.u.] -> [J]                                              4.35974393937059E-18
 [a.u.] -> [N]                                              8.23872205491840E-08
 [a.u.] -> [K]                                              3.15774647902944E+05
 [a.u.] -> [kJ/mol]                                         2.62549961709828E+03
 [a.u.] -> [kcal/mol]                                       6.27509468713739E+02
 [a.u.] -> [Pa]                                             2.94210107994716E+13
 [a.u.] -> [bar]                                            2.94210107994716E+08
 [a.u.] -> [atm]                                            2.90362800883016E+08
 [a.u.] -> [eV]                                             2.72113838565563E+01
 [a.u.] -> [Hz]                                             6.57968392072181E+15
 [a.u.] -> [1/cm] (wave numbers)                            2.19474631370540E+05
 [a.u./Bohr**2] -> [1/cm]                                   5.14048714338585E+03
 

 CELL_TOP| Volume [angstrom^3]:                                          160.165
 CELL_TOP| Vector a [angstrom     5.431     0.000     0.000    |a| =       5.431
 CELL_TOP| Vector b [angstrom     0.000     5.431     0.000    |b| =       5.431
 CELL_TOP| Vector c [angstrom     0.000     0.000     5.431    |c| =       5.431
 CELL_TOP| Angle (b,c), alpha [degree]:                                   90.000
 CELL_TOP| Angle (a,c), beta  [degree]:                                   90.000
 CELL_TOP| Angle (a,b), gamma [degree]:                                   90.000
 CELL_TOP| Numerically orthorhombic:                                         YES

 GENERATE|  Preliminary Number of Bonds generated:                             0
 GENERATE|  Achieved consistency in connectivity generation.

 CELL| Volume [angstrom^3]:                                              160.165
 CELL| Vector a [angstrom]:       5.431     0.000     0.000    |a| =       5.431
 CELL| Vector b [angstrom]:       0.000     5.431     0.000    |b| =       5.431
 CELL| Vector c [angstrom]:       0.000     0.000     5.431    |c| =       5.431
 CELL| Angle (b,c), alpha [degree]:                                       90.000
 CELL| Angle (a,c), beta  [degree]:                                       90.000
 CELL| Angle (a,b), gamma [degree]:                                       90.000
 CELL| Numerically orthorhombic:                                             YES

 CELL_REF| Volume [angstrom^3]:                                          160.165
 CELL_REF| Vector a [angstrom     5.431     0.000     0.000    |a| =       5.431
 CELL_REF| Vector b [angstrom     0.000     5.431     0.000    |b| =       5.431
 CELL_REF| Vector c [angstrom     0.000     0.000     5.431    |c| =       5.431
 CELL_REF| Angle (b,c), alpha [degree]:                                   90.000
 CELL_REF| Angle (a,c), beta  [degree]:                                   90.000
 CELL_REF| Angle (a,b), gamma [degree]:                                   90.000
 CELL_REF| Numerically orthorhombic:                                         YES

 *******************************************************************************
 *******************************************************************************
 **                                                                           **
 **     #####                         ##              ##                      **
 **    ##   ##            ##          ##              ##                      **
 **   ##     ##                       ##            ######                    **
 **   ##     ##  ##   ##  ##   #####  ##  ##   ####   ##    #####    #####    **
 **   ##     ##  ##   ##  ##  ##      ## ##   ##      ##   ##   ##  ##   ##   **
 **   ##  ## ##  ##   ##  ##  ##      ####     ###    ##   ######   ######    **
 **    ##  ###   ##   ##  ##  ##      ## ##      ##   ##   ##       ##        **
 **     #######   #####   ##   #####  ##  ##  ####    ##    #####   ##        **
 **           ##                                                    ##        **
 **                                                                           **
 **                                                ... make the atoms dance   **
 **                                                                           **
 **            Copyright (C) by CP2K Developers Group (2000 - 2014)           **
 **                                                                           **
 *******************************************************************************

 DFT| Spin restricted Kohn-Sham (RKS) calculation                            RKS
 DFT| Multiplicity                                                             1
 DFT| Number of spin states                                                    1
 DFT| Charge                                                                   0
 DFT| Self-interaction correction (SIC)                                       NO
 DFT| Cutoffs: density                                              1.000000E-10
 DFT|          gradient                                             1.000000E-10
 DFT|          tau                                                  1.000000E-10
 DFT|          cutoff_smoothing_range                               0.000000E+00
 DFT| XC density smoothing                                                  NONE
 DFT| XC derivatives                                                          PW
 FUNCTIONAL| ROUTINE=NEW
 FUNCTIONAL| PADE:
 FUNCTIONAL| S. Goedecker, M. Teter and J. Hutter, Phys. Rev. B 54, 1703 (1996)

 QS| Method:                                                                 GPW
 QS| Density plane wave grid type                        NON-SPHERICAL FULLSPACE
 QS| Number of grid levels:                                                    2
 QS| Density cutoff [a.u.]:                                                 25.0
 QS| Multi grid cutoff [a.u.]: 1) grid level                                25.0
 QS|                           2) grid level                                 8.3
 QS| Grid level progression factor:                                          3.0
 QS| Relative density cutoff [a.u.]:                                        12.5
 QS| Consistent realspace mapping and integration 
 QS| Interaction thresholds: eps_pgf_orb:                                3.2E-02
 QS|                         eps_filter_matrix:                          0.0E+00
 QS|                         eps_core_charge:                            1.0E-05
 QS|                         eps_rho_gspace:                             1.0E-03
 QS|                         eps_rho_rspace:                             1.0E-03
 QS|                         eps_gvg_rspace:                             3.2E-02
 QS|                         eps_ppl:                                    1.0E-02
 QS|                         eps_ppnl:                                   3.2E-04


 ATOMIC KIND INFORMATION

  1. Atomic kind: Si                                    Number of atoms:       1

     Orbital Basis Set                                             DZVP-GTH-PADE

       Number of orbital shell sets:                                           2
       Number of orbital shells:                                               5
       Number of primitive Cartesian functions:                                5
       Number of Cartesian basis functions:                                   14
       Number of spherical basis functions:                                   13
       Norm type:                                                              2

       Normalised Cartesian orbitals:

                        Set   Shell   Orbital            Exponent    Coefficient

                          1       1    3s                1.203242       0.269412
                                                         0.468841      -0.102290
                                                         0.167986      -0.147195
                                                         0.057562      -0.015996

                          1       2    4s                1.203242       0.000000
                                                         0.468841       0.000000
                                                         0.167986       0.000000
                                                         0.057562       0.083755

                          1       3    4px               1.203242       0.085242
                                                         0.468841      -0.143473
                                                         0.167986      -0.083408
                                                         0.057562      -0.014565
                          1       3    4py               1.203242       0.085242
                                                         0.468841      -0.143473
                                                         0.167986      -0.083408
                                                         0.057562      -0.014565
                          1       3    4pz               1.203242       0.085242
                                                         0.468841      -0.143473
                                                         0.167986      -0.083408
                                                         0.057562      -0.014565

                          1       4    5px               1.203242       0.000000
                                                         0.468841       0.000000
                                                         0.167986       0.000000
                                                         0.057562       0.040189
                          1       4    5py               1.203242       0.000000
                                                         0.468841       0.000000
                                                         0.167986       0.000000
                                                         0.057562       0.040189
                          1       4    5pz               1.203242       0.000000
                                                         0.468841       0.000000
                                                         0.167986       0.000000
                                                         0.057562       0.040189

                          2       1    3dx2              0.450000       0.406941
                          2       1    3dxy              0.450000       0.704842
                          2       1    3dxz              0.450000       0.704842
                          2       1    3dy2              0.450000       0.406941
                          2       1    3dyz              0.450000       0.704842
                          2       1    3dz2              0.450000       0.406941

     Potential information for                                       GTH-PADE-q4

       Description:                       Goedecker-Teter-Hutter pseudopotential
                                           Goedecker et al., PRB 54, 1703 (1996)
                                          Hartwigsen et al., PRB 58, 3641 (1998)
                                                      Krack, TCA 114, 145 (2005)

       Gaussian exponent of the core charge distribution:               2.582645
       Electronic configuration (s p d ...):                               2   2

       Parameters of the local part of the GTH pseudopotential:

                          rloc        C1          C2          C3          C4
                        0.440000   -7.336103

       Parameters of the non-local part of the GTH pseudopotential:

                   l      r(l)      h(i,j,l)

                   0    0.422738    5.906928   -1.261894
                                   -1.261894    3.258196
                   1    0.484278    2.727013


 MOLECULE KIND INFORMATION


 All atoms are their own molecule, skipping detailed information


 TOTAL NUMBERS AND MAXIMUM NUMBERS

  Total number of            - Atomic kinds:                                   1
                             - Atoms:                                          1
                             - Shell sets:                                     2
                             - Shells:                                         5
                             - Primitive Cartesian functions:                  5
                             - Cartesian basis functions:                     14
                             - Spherical basis functions:                     13

  Maximum angular momentum of- Orbital basis functions:                        2
                             - Local part of the GTH pseudopotential:          0
                             - Non-local part of the GTH pseudopotential:      2


 MODULE QUICKSTEP:  ATOMIC COORDINATES IN angstrom

  Atom  Kind  Element       X           Y           Z          Z(eff)       Mass

       1     1 Si  14    0.000000    0.000000    0.000000      4.00      28.0855




 SCF PARAMETERS         Density guess:                                    ATOMIC
                        --------------------------------------------------------
                        max_scf:                                             100
                        max_scf_history:                                       0
                        max_diis:                                              4
                        --------------------------------------------------------
                        eps_scf:                                        1.00E-03
                        eps_scf_history:                                0.00E+00
                        eps_diis:                                       1.00E-01
                        eps_eigval:                                     1.00E-05
                        --------------------------------------------------------
                        level_shift [a.u.]:                                 0.00
                        --------------------------------------------------------
                        Mixing method:                           DIRECT_P_MIXING
                        --------------------------------------------------------
                        No outer SCF

 PW_GRID| Information for grid number                                          1
 PW_GRID| Cutoff [a.u.]                                                     25.0
 PW_GRID| spherical cutoff:                                                   NO
 PW_GRID|   Bounds   1            -12      11                Points:          24
 PW_GRID|   Bounds   2            -12      11                Points:          24
 PW_GRID|   Bounds   3            -12      11                Points:          24
 PW_GRID| Volume element (a.u.^3)  0.7819E-01     Volume (a.u.^3)      1080.8451
 PW_GRID| Grid span                                                    FULLSPACE

 PW_GRID| Information for grid number                                          2
 PW_GRID| Cutoff [a.u.]                                                      8.3
 PW_GRID| spherical cutoff:                                                   NO
 PW_GRID|   Bounds   1             -7       7                Points:          15
 PW_GRID|   Bounds   2             -7       7                Points:          15
 PW_GRID|   Bounds   3             -7       7                Points:          15
 PW_GRID| Volume element (a.u.^3)  0.3203         Volume (a.u.^3)      1080.8451
 PW_GRID| Grid span                                                    FULLSPACE

 POISSON| Solver                                                        PERIODIC
 POISSON| Periodicity                                                        XYZ

 RS_GRID| Information for grid number                                          1
 RS_GRID|   Bounds   1            -12      11                Points:          24
 RS_GRID|   Bounds   2            -12      11                Points:          24
 RS_GRID|   Bounds   3            -12      11                Points:          24

 RS_GRID| Information for grid number                                          2
 RS_GRID|   Bounds   1             -7       7                Points:          15
 RS_GRID|   Bounds   2             -7       7                Points:          15
 RS_GRID|   Bounds   3             -7       7                Points:          15

 DISTRIBUTION OF THE PARTICLES (ROWS)
              Process row      Number of particles         Number of matrix rows
                        0                        1                            -1
                      Sum                        1                            -1

 DISTRIBUTION OF THE PARTICLES (COLUMNS)
              Process col      Number of particles      Number of matrix columns
                        0                        1                            -1
                      Sum                        1                            -1

 DISTRIBUTION OF THE NEIGHBOR LISTS
              Total number of particle pairs:                                  3
              Total number of matrix elements:                               507
              Average number of particle pairs:                                3
              Maximum number of particle pairs:                                3
              Average number of matrix element:                              507
              Maximum number of matrix elements:                             507


 DISTRIBUTION OF THE OVERLAP MATRIX
              Number  of non-zero blocks:                                      1
              Percentage non-zero blocks:                                 100.00
              Average number of blocks per CPU:                                1
              Maximum number of blocks per CPU:                                1
              Average number of matrix elements per CPU:                     179
              Maximum number of matrix elements per CPU:                     179

 Number of electrons:                                                          4
 Number of occupied orbitals:                                                  2
 Number of molecular orbitals:                                                 2

 Number of orbital functions:                                                 13
 Number of independent orbital functions:                                     13

 Extrapolation method: initial_guess

 Atomic guess: The first density matrix is obtained in terms of atomic orbitals
               and electronic configurations assigned to each atomic kind

 Guess for atomic kind: Si

 Electronic structure
    Total number of core electrons                                         10.00
    Total number of valence electrons                                       4.00
    Total number of electrons                                              14.00
    Multiplicity                                                   not specified
    S   [  2.00  2.00] 2.00
    P   [  6.00] 2.00


 *******************************************************************************
                  Iteration          Convergence                     Energy [au]
 *******************************************************************************
                          1        0.191310                      -3.618313869735
                          2        0.731569E-01                  -3.691159009622
                          3        0.405574E-02                  -3.699900512584
                          4        0.328704E-02                  -3.699908407293
                          5        0.320845E-02                  -3.699909118998
                          6        0.316809E-02                  -3.699909477757
                          7        0.331859E-05                  -3.699923449535
                          8        0.110258E-06                  -3.699923449550

 Energy components [Hartree]           Total Energy ::           -3.699923449550
                                        Band Energy ::           -1.012729790251
                                     Kinetic Energy ::            1.397012768229
                                   Potential Energy ::           -5.096936217779
                                      Virial (-V/T) ::            3.648453567279
                                        Core Energy ::           -5.703543362687
                                          XC Energy ::           -0.980691562795
                                     Coulomb Energy ::            2.984311475932
                       Total Pseudopotential Energy ::           -7.145739758818
                       Local Pseudopotential Energy ::           -7.987908627736
                    Nonlocal Pseudopotential Energy ::            0.842168868918
                                        Confinement ::            0.451836279031

 Orbital energies  State     L     Occupation   Energy[a.u.]          Energy[eV]

                       1     0          2.000      -0.378230          -10.292155

                       1     1          2.000      -0.128135           -3.486734

 Re-scaling the density matrix to get the right number of electrons
                  # Electrons              Trace(P)               Scaling factor
                            4                 3.986                        1.004


 SCF WAVEFUNCTION OPTIMIZATION

  Step     Update method      Time    Convergence         Total energy    Change
  ------------------------------------------------------------------------------

  Trace(PS):                                    4.0000000000
  Electronic density on regular grids:         -3.9998852943        0.0001147057
  Core density on regular grids:                3.9961648024       -0.0038351976
  Total charge density on r-space grids:       -0.0037204919
  Total charge density g-space grids:          -0.0037204919

     1 P_Mix/Diag. 0.40E+00    0.0     1.06685591        -3.7524712283 -3.75E+00

  Trace(PS):                                    4.0000000000
  Electronic density on regular grids:         -3.9998850762        0.0001149238
  Core density on regular grids:                3.9961648024       -0.0038351976
  Total charge density on r-space grids:       -0.0037202739
  Total charge density g-space grids:          -0.0037202739

     2 P_Mix/Diag. 0.40E+00    0.0     1.15984637        -3.7504170383  2.05E-03

  Trace(PS):                                    4.0000000000
  Electronic density on regular grids:         -3.9998878593        0.0001121407
  Core density on regular grids:                3.9961648024       -0.0038351976
  Total charge density on r-space grids:       -0.0037230569
  Total charge density g-space grids:          -0.0037230569

     3 P_Mix/Diag. 0.40E+00    0.0     1.33652663        -3.7504335843 -1.65E-05

  Trace(PS):                                    4.0000000000
  Electronic density on regular grids:         -3.9998724454        0.0001275546
  Core density on regular grids:                3.9961648024       -0.0038351976
  Total charge density on r-space grids:       -0.0037076430
  Total charge density g-space grids:          -0.0037076430

     4 P_Mix/Diag. 0.40E+00    0.0     1.46037499        -3.7500787129  3.55E-04

  Trace(PS):                                    4.0000000000
  Electronic density on regular grids:         -3.9998786670        0.0001213330
  Core density on regular grids:                3.9961648024       -0.0038351976
  Total charge density on r-space grids:       -0.0037138647
  Total charge density g-space grids:          -0.0037138647

     5 P_Mix/Diag. 0.40E+00    0.0     1.04932454        -3.7509526049 -8.74E-04

  Trace(PS):                                    4.0000000000
  Electronic density on regular grids:         -3.9998850208        0.0001149792
  Core density on regular grids:                3.9961648024       -0.0038351976
  Total charge density on r-space grids:       -0.0037202184
  Total charge density g-space grids:          -0.0037202184

     6 P_Mix/Diag. 0.40E+00    0.0     1.26663573        -3.7502985387  6.54E-04

  Trace(PS):                                    4.0000000000
  Electronic density on regular grids:         -3.9998859697        0.0001140303
  Core density on regular grids:                3.9961648024       -0.0038351976
  Total charge density on r-space grids:       -0.0037211673
  Total charge density g-space grids:          -0.0037211673

     7 P_Mix/Diag. 0.40E+00    0.0     1.15732203        -3.7495998888  6.99E-04

  Trace(PS):                                    4.0000000000
  Electronic density on regular grids:         -3.9998713958        0.0001286042
  Core density on regular grids:                3.9961648024       -0.0038351976
  Total charge density on r-space grids:       -0.0037065934
  Total charge density g-space grids:          -0.0037065934

     8 P_Mix/Diag. 0.40E+00    0.0     1.23383119        -3.7508214778 -1.22E-03

  Trace(PS):                                    4.0000000000
  Electronic density on regular grids:         -3.9998811554        0.0001188446
  Core density on regular grids:                3.9961648024       -0.0038351976
  Total charge density on r-space grids:       -0.0037163530
  Total charge density g-space grids:          -0.0037163530

     9 P_Mix/Diag. 0.40E+00    0.0     1.48541551        -3.7495067066  1.31E-03

  Trace(PS):                                    4.0000000000
  Electronic density on regular grids:         -3.9998838298        0.0001161702
  Core density on regular grids:                3.9961648024       -0.0038351976
  Total charge density on r-space grids:       -0.0037190274
  Total charge density g-space grids:          -0.0037190274

    10 P_Mix/Diag. 0.40E+00    0.0     1.09022407        -3.7507453367 -1.24E-03

  Trace(PS):                                    4.0000000000
  Electronic density on regular grids:         -3.9998699450        0.0001300550
  Core density on regular grids:                3.9961648024       -0.0038351976
  Total charge density on r-space grids:       -0.0037051426
  Total charge density g-space grids:          -0.0037051426

    11 P_Mix/Diag. 0.40E+00    0.0     1.27215438        -3.7503376069  4.08E-04

  Trace(PS):                                    4.0000000000
  Electronic density on regular grids:         -3.9998771924        0.0001228076
  Core density on regular grids:                3.9961648024       -0.0038351976
  Total charge density on r-space grids:       -0.0037123900
  Total charge density g-space grids:          -0.0037123900

    12 P_Mix/Diag. 0.40E+00    0.0     1.14480650        -3.7495902846  7.47E-04

  Trace(PS):                                    4.0000000000
  Electronic density on regular grids:         -3.9998845309        0.0001154691
  Core density on regular grids:                3.9961648024       -0.0038351976
  Total charge density on r-space grids:       -0.0037197285
  Total charge density g-space grids:          -0.0037197285

    13 P_Mix/Diag. 0.40E+00    0.0     1.24120891        -3.7507551363 -1.16E-03

  Trace(PS):                                    4.0000000000
  Electronic density on regular grids:         -3.9998705586        0.0001294414
  Core density on regular grids:                3.9961648024       -0.0038351976
  Total charge density on r-space grids:       -0.0037057563
  Total charge density g-space grids:          -0.0037057563

    14 P_Mix/Diag. 0.40E+00    0.0     1.48645593        -3.7495015989  1.25E-03

  Trace(PS):                                    4.0000000000
  Electronic density on regular grids:         -3.9998776520        0.0001223480
  Core density on regular grids:                3.9961648024       -0.0038351976
  Total charge density on r-space grids:       -0.0037128496
  Total charge density g-space grids:          -0.0037128496

    15 P_Mix/Diag. 0.40E+00    0.0     1.08793999        -3.7507392362 -1.24E-03

  Trace(PS):                                    4.0000000000
  Electronic density on regular grids:         -3.9998845970        0.0001154030
  Core density on regular grids:                3.9961648024       -0.0038351976
  Total charge density on r-space grids:       -0.0037197946
  Total charge density g-space grids:          -0.0037197946

    16 P_Mix/Diag. 0.40E+00    0.0     1.27264546        -3.7503249973  4.14E-04

  Trace(PS):                                    4.0000000000
  Electronic density on regular grids:         -3.9998857656        0.0001142344
  Core density on regular grids:                3.9961648024       -0.0038351976
  Total charge density on r-space grids:       -0.0037209632
  Total charge density g-space grids:          -0.0037209632

    17 P_Mix/Diag. 0.40E+00    0.0     1.14558709        -3.7495857957  7.39E-04

  Trace(PS):                                    4.0000000000
  Electronic density on regular grids:         -3.9998712244        0.0001287756
  Core density on regular grids:                3.9961648024       -0.0038351976
  Total charge density on r-space grids:       -0.0037064220
  Total charge density g-space grids:          -0.0037064220

    18 P_Mix/Diag. 0.40E+00    0.0     1.24079659        -3.7507535493 -1.17E-03

  Trace(PS):                                    4.0000000000
  Electronic density on regular grids:         -3.9998810864        0.0001189136
  Core density on regular grids:                3.9961648024       -0.0038351976
  Total charge density on r-space grids:       -0.0037162841
  Total charge density g-space grids:          -0.0037162841

    19 P_Mix/Diag. 0.40E+00    0.0     1.48654611        -3.7494997011  1.25E-03

  Trace(PS):                                    4.0000000000
  Electronic density on regular grids:         -3.9998837971        0.0001162029
  Core density on regular grids:                3.9961648024       -0.0038351976
  Total charge density on r-space grids:       -0.0037189947
  Total charge density g-space grids:          -0.0037189947

    20 P_Mix/Diag. 0.40E+00    0.0     1.08806996        -3.7507385313 -1.24E-03

  Trace(PS):                                    4.0000000000
  Electronic density on regular grids:         -3.9998699142        0.0001300858
  Core density on regular grids:                3.9961648024       -0.0038351976
  Total charge density on r-space grids:       -0.0037051118
  Total charge density g-space grids:          -0.0037051118

    21 P_Mix/Diag. 0.40E+00    0.0     1.27266540        -3.7503240670  4.14E-04

  Trace(PS):                                    4.0000000000
  Electronic density on regular grids:         -3.9998771798        0.0001228202
  Core density on regular grids:                3.9961648024       -0.0038351976
  Total charge density on r-space grids:       -0.0037123774
  Total charge density g-space grids:          -0.0037123774

    22 P_Mix/Diag. 0.40E+00    0.0     1.14554445        -3.7495851788  7.39E-04

  Trace(PS):                                    4.0000000000
  Electronic density on regular grids:         -3.9998845272        0.0001154728
  Core density on regular grids:                3.9961648024       -0.0038351976
  Total charge density on r-space grids:       -0.0037197248
  Total charge density g-space grids:          -0.0037197248

    23 P_Mix/Diag. 0.40E+00    0.0     1.24081994        -3.7507538407 -1.17E-03

  Trace(PS):                                    4.0000000000
  Electronic density on regular grids:         -3.9998705389        0.0001294611
  Core density on regular grids:                3.9961648024       -0.0038351976
  Total charge density on r-space grids:       -0.0037057366
  Total charge density g-space grids:          -0.0037057366

    24 P_Mix/Diag. 0.40E+00    0.0     1.48654989        -3.7494991818  1.25E-03

  Trace(PS):                                    4.0000000000
  Electronic density on regular grids:         -3.9998776535        0.0001223465
  Core density on regular grids:                3.9961648024       -0.0038351976
  Total charge density on r-space grids:       -0.0037128511
  Total charge density g-space grids:          -0.0037128511

    25 P_Mix/Diag. 0.40E+00    0.0     1.08806068        -3.7507382181 -1.24E-03

  Trace(PS):                                    4.0000000000
  Electronic density on regular grids:         -3.9998845985        0.0001154015
  Core density on regular grids:                3.9961648024       -0.0038351976
  Total charge density on r-space grids:       -0.0037197962
  Total charge density g-space grids:          -0.0037197962

    26 P_Mix/Diag. 0.40E+00    0.0     1.27267130        -3.7503245943  4.14E-04

  Trace(PS):                                    4.0000000000
  Electronic density on regular grids:         -3.9998857312        0.0001142688
  Core density on regular grids:                3.9961648024       -0.0038351976
  Total charge density on r-space grids:       -0.0037209288
  Total charge density g-space grids:          -0.0037209288

    27 P_Mix/Diag. 0.40E+00    0.0     1.14555078        -3.7495854999  7.39E-04

  Trace(PS):                                    4.0000000000
  Electronic density on regular grids:         -3.9998712328        0.0001287672
  Core density on regular grids:                3.9961648024       -0.0038351976
  Total charge density on r-space grids:       -0.0037064305
  Total charge density g-space grids:          -0.0037064305

    28 P_Mix/Diag. 0.40E+00    0.0     1.24081571        -3.7507533113 -1.17E-03

  Trace(PS):                                    4.0000000000
  Electronic density on regular grids:         -3.9998810915        0.0001189085
  Core density on regular grids:                3.9961648024       -0.0038351976
  Total charge density on r-space grids:       -0.0037162891
  Total charge density g-space grids:          -0.0037162891

    29 P_Mix/Diag. 0.40E+00    0.0     1.48655210        -3.7494995803  1.25E-03

  Trace(PS):                                    4.0000000000
  Electronic density on regular grids:         -3.9998837925        0.0001162075
  Core density on regular grids:                3.9961648024       -0.0038351976
  Total charge density on r-space grids:       -0.0037189901
  Total charge density g-space grids:          -0.0037189901

    30 P_Mix/Diag. 0.40E+00    0.0     1.08806498        -3.7507384601 -1.24E-03

  Trace(PS):                                    4.0000000000
  Electronic density on regular grids:         -3.9998699169        0.0001300831
  Core density on regular grids:                3.9961648024       -0.0038351976
  Total charge density on r-space grids:       -0.0037051145
  Total charge density g-space grids:          -0.0037051145

    31 P_Mix/Diag. 0.40E+00    0.0     1.27266860        -3.7503240242  4.14E-04

  Trace(PS):                                    4.0000000000
  Electronic density on regular grids:         -3.9998771776        0.0001228224
  Core density on regular grids:                3.9961648024       -0.0038351976
  Total charge density on r-space grids:       -0.0037123752
  Total charge density g-space grids:          -0.0037123752

    32 P_Mix/Diag. 0.40E+00    0.0     1.14554588        -3.7495851590  7.39E-04

  Trace(PS):                                    4.0000000000
  Electronic density on regular grids:         -3.9998845259        0.0001154741
  Core density on regular grids:                3.9961648024       -0.0038351976
  Total charge density on r-space grids:       -0.0037197236
  Total charge density g-space grids:          -0.0037197236

    33 P_Mix/Diag. 0.40E+00    0.0     1.24081936        -3.7507538211 -1.17E-03

  Trace(PS):                                    4.0000000000
  Electronic density on regular grids:         -3.9998705535        0.0001294465
  Core density on regular grids:                3.9961648024       -0.0038351976
  Total charge density on r-space grids:       -0.0037057511
  Total charge density g-space grids:          -0.0037057511

    34 P_Mix/Diag. 0.40E+00    0.0     1.48655037        -3.7494991739  1.25E-03

  Trace(PS):                                    4.0000000000
  Electronic density on regular grids:         -3.9998776496        0.0001223504
  Core density on regular grids:                3.9961648024       -0.0038351976
  Total charge density on r-space grids:       -0.0037128472
  Total charge density g-space grids:          -0.0037128472

    35 P_Mix/Diag. 0.40E+00    0.0     1.08806070        -3.7507382136 -1.24E-03

  Trace(PS):                                    4.0000000000
  Electronic density on regular grids:         -3.9998845963        0.0001154037
  Core density on regular grids:                3.9961648024       -0.0038351976
  Total charge density on r-space grids:       -0.0037197939
  Total charge density g-space grids:          -0.0037197939

    36 P_Mix/Diag. 0.40E+00    0.0     1.27266734        -3.7503245892  4.14E-04

  Trace(PS):                                    4.0000000000
  Electronic density on regular grids:         -3.9998857640        0.0001142360
  Core density on regular grids:                3.9961648024       -0.0038351976
  Total charge density on r-space grids:       -0.0037209617
  Total charge density g-space grids:          -0.0037209617

    37 P_Mix/Diag. 0.40E+00    0.0     1.14554866        -3.7495855020  7.39E-04

  Trace(PS):                                    4.0000000000
  Electronic density on regular grids:         -3.9998712241        0.0001287759
  Core density on regular grids:                3.9961648024       -0.0038351976
  Total charge density on r-space grids:       -0.0037064217
  Total charge density g-space grids:          -0.0037064217

    38 P_Mix/Diag. 0.40E+00    0.0     1.24081563        -3.7507533100 -1.17E-03

  Trace(PS):                                    4.0000000000
  Electronic density on regular grids:         -3.9998810865        0.0001189135
  Core density on regular grids:                3.9961648024       -0.0038351976
  Total charge density on r-space grids:       -0.0037162841
  Total charge density g-space grids:          -0.0037162841

    39 P_Mix/Diag. 0.40E+00    0.0     1.48655181        -3.7494995793  1.25E-03

  Trace(PS):                                    4.0000000000
  Electronic density on regular grids:         -3.9998837969        0.0001162031
  Core density on regular grids:                3.9961648024       -0.0038351976
  Total charge density on r-space grids:       -0.0037189945
  Total charge density g-space grids:          -0.0037189945

    40 P_Mix/Diag. 0.40E+00    0.0     1.08806490        -3.7507384598 -1.24E-03

  Trace(PS):                                    4.0000000000
  Electronic density on regular grids:         -3.9998699142        0.0001300858
  Core density on regular grids:                3.9961648024       -0.0038351976
  Total charge density on r-space grids:       -0.0037051118
  Total charge density g-space grids:          -0.0037051118

    41 P_Mix/Diag. 0.40E+00    0.0     1.27266854        -3.7503240240  4.14E-04

  Trace(PS):                                    4.0000000000
  Electronic density on regular grids:         -3.9998771797        0.0001228203
  Core density on regular grids:                3.9961648024       -0.0038351976
  Total charge density on r-space grids:       -0.0037123773
  Total charge density g-space grids:          -0.0037123773

    42 P_Mix/Diag. 0.40E+00    0.0     1.14554588        -3.7495851591  7.39E-04

  Trace(PS):                                    4.0000000000
  Electronic density on regular grids:         -3.9998845271        0.0001154729
  Core density on regular grids:                3.9961648024       -0.0038351976
  Total charge density on r-space grids:       -0.0037197248
  Total charge density g-space grids:          -0.0037197248

    43 P_Mix/Diag. 0.40E+00    0.0     1.24081944        -3.7507538209 -1.17E-03

  Trace(PS):                                    4.0000000000
  Electronic density on regular grids:         -3.9998705394        0.0001294606
  Core density on regular grids:                3.9961648024       -0.0038351976
  Total charge density on r-space grids:       -0.0037057370
  Total charge density g-space grids:          -0.0037057370

    44 P_Mix/Diag. 0.40E+00    0.0     1.48655049        -3.7494991733  1.25E-03

  Trace(PS):                                    4.0000000000
  Electronic density on regular grids:         -3.9998776534        0.0001223466
  Core density on regular grids:                3.9961648024       -0.0038351976
  Total charge density on r-space grids:       -0.0037128510
  Total charge density g-space grids:          -0.0037128510

    45 P_Mix/Diag. 0.40E+00    0.0     1.08806070        -3.7507382137 -1.24E-03

  Trace(PS):                                    4.0000000000
  Electronic density on regular grids:         -3.9998845985        0.0001154015
  Core density on regular grids:                3.9961648024       -0.0038351976
  Total charge density on r-space grids:       -0.0037197961
  Total charge density g-space grids:          -0.0037197961

    46 P_Mix/Diag. 0.40E+00    0.0     1.27267140        -3.7503245893  4.14E-04

  Trace(PS):                                    4.0000000000
  Electronic density on regular grids:         -3.9998857322        0.0001142678
  Core density on regular grids:                3.9961648024       -0.0038351976
  Total charge density on r-space grids:       -0.0037209299
  Total charge density g-space grids:          -0.0037209299

    47 P_Mix/Diag. 0.40E+00    0.0     1.14555080        -3.7495854972  7.39E-04

  Trace(PS):                                    4.0000000000
  Electronic density on regular grids:         -3.9998712326        0.0001287674
  Core density on regular grids:                3.9961648024       -0.0038351976
  Total charge density on r-space grids:       -0.0037064302
  Total charge density g-space grids:          -0.0037064302

    48 P_Mix/Diag. 0.40E+00    0.0     1.24081567        -3.7507533107 -1.17E-03

  Trace(PS):                                    4.0000000000
  Electronic density on regular grids:         -3.9998810914        0.0001189086
  Core density on regular grids:                3.9961648024       -0.0038351976
  Total charge density on r-space grids:       -0.0037162890
  Total charge density g-space grids:          -0.0037162890

    49 P_Mix/Diag. 0.40E+00    0.0     1.48655213        -3.7494995792  1.25E-03

  Trace(PS):                                    4.0000000000
  Electronic density on regular grids:         -3.9998837926        0.0001162074
  Core density on regular grids:                3.9961648024       -0.0038351976
  Total charge density on r-space grids:       -0.0037189903
  Total charge density g-space grids:          -0.0037189903

    50 P_Mix/Diag. 0.40E+00    0.0     1.08806501        -3.7507384595 -1.24E-03

  Trace(PS):                                    4.0000000000
  Electronic density on regular grids:         -3.9998699168        0.0001300832
  Core density on regular grids:                3.9961648024       -0.0038351976
  Total charge density on r-space grids:       -0.0037051144
  Total charge density g-space grids:          -0.0037051144

    51 P_Mix/Diag. 0.40E+00    0.0     1.27266862        -3.7503240241  4.14E-04

  Trace(PS):                                    4.0000000000
  Electronic density on regular grids:         -3.9998771776        0.0001228224
  Core density on regular grids:                3.9961648024       -0.0038351976
  Total charge density on r-space grids:       -0.0037123753
  Total charge density g-space grids:          -0.0037123753

    52 P_Mix/Diag. 0.40E+00    0.0     1.14554586        -3.7495851590  7.39E-04

  Trace(PS):                                    4.0000000000
  Electronic density on regular grids:         -3.9998845260        0.0001154740
  Core density on regular grids:                3.9961648024       -0.0038351976
  Total charge density on r-space grids:       -0.0037197236
  Total charge density g-space grids:          -0.0037197236

    53 P_Mix/Diag. 0.40E+00    0.0     1.24081938        -3.7507538209 -1.17E-03

  Trace(PS):                                    4.0000000000
  Electronic density on regular grids:         -3.9998705530        0.0001294470
  Core density on regular grids:                3.9961648024       -0.0038351976
  Total charge density on r-space grids:       -0.0037057507
  Total charge density g-space grids:          -0.0037057507

    54 P_Mix/Diag. 0.40E+00    0.0     1.48655040        -3.7494991738  1.25E-03

  Trace(PS):                                    4.0000000000
  Electronic density on regular grids:         -3.9998776497        0.0001223503
  Core density on regular grids:                3.9961648024       -0.0038351976
  Total charge density on r-space grids:       -0.0037128473
  Total charge density g-space grids:          -0.0037128473

    55 P_Mix/Diag. 0.40E+00    0.0     1.08806069        -3.7507382136 -1.24E-03

  Trace(PS):                                    4.0000000000
  Electronic density on regular grids:         -3.9998845964        0.0001154036
  Core density on regular grids:                3.9961648024       -0.0038351976
  Total charge density on r-space grids:       -0.0037197940
  Total charge density g-space grids:          -0.0037197940

    56 P_Mix/Diag. 0.40E+00    0.0     1.27266757        -3.7503245892  4.14E-04

  Trace(PS):                                    4.0000000000
  Electronic density on regular grids:         -3.9998857630        0.0001142370
  Core density on regular grids:                3.9961648024       -0.0038351976
  Total charge density on r-space grids:       -0.0037209607
  Total charge density g-space grids:          -0.0037209607

    57 P_Mix/Diag. 0.40E+00    0.0     1.14554878        -3.7495855017  7.39E-04

  Trace(PS):                                    4.0000000000
  Electronic density on regular grids:         -3.9998712244        0.0001287756
  Core density on regular grids:                3.9961648024       -0.0038351976
  Total charge density on r-space grids:       -0.0037064220
  Total charge density g-space grids:          -0.0037064220

    58 P_Mix/Diag. 0.40E+00    0.0     1.24081561        -3.7507533100 -1.17E-03

  Trace(PS):                                    4.0000000000
  Electronic density on regular grids:         -3.9998810866        0.0001189134
  Core density on regular grids:                3.9961648024       -0.0038351976
  Total charge density on r-space grids:       -0.0037162842
  Total charge density g-space grids:          -0.0037162842

    59 P_Mix/Diag. 0.40E+00    0.0     1.48655183        -3.7494995792  1.25E-03

  Trace(PS):                                    4.0000000000
  Electronic density on regular grids:         -3.9998837967        0.0001162033
  Core density on regular grids:                3.9961648024       -0.0038351976
  Total charge density on r-space grids:       -0.0037189944
  Total charge density g-space grids:          -0.0037189944

    60 P_Mix/Diag. 0.40E+00    0.0     1.08806485        -3.7507384597 -1.24E-03

  Trace(PS):                                    4.0000000000
  Electronic density on regular grids:         -3.9998699143        0.0001300857
  Core density on regular grids:                3.9961648024       -0.0038351976
  Total charge density on r-space grids:       -0.0037051119
  Total charge density g-space grids:          -0.0037051119

    61 P_Mix/Diag. 0.40E+00    0.0     1.27266855        -3.7503240239  4.14E-04

  Trace(PS):                                    4.0000000000
  Electronic density on regular grids:         -3.9998771796        0.0001228204
  Core density on regular grids:                3.9961648024       -0.0038351976
  Total charge density on r-space grids:       -0.0037123772
  Total charge density g-space grids:          -0.0037123772

    62 P_Mix/Diag. 0.40E+00    0.0     1.14554572        -3.7495851591  7.39E-04

  Trace(PS):                                    4.0000000000
  Electronic density on regular grids:         -3.9998845271        0.0001154729
  Core density on regular grids:                3.9961648024       -0.0038351976
  Total charge density on r-space grids:       -0.0037197247
  Total charge density g-space grids:          -0.0037197247

    63 P_Mix/Diag. 0.40E+00    0.0     1.24081902        -3.7507538207 -1.17E-03

  Trace(PS):                                    4.0000000000
  Electronic density on regular grids:         -3.9998705398        0.0001294602
  Core density on regular grids:                3.9961648024       -0.0038351976
  Total charge density on r-space grids:       -0.0037057374
  Total charge density g-space grids:          -0.0037057374

    64 P_Mix/Diag. 0.40E+00    0.0     1.48655051        -3.7494991730  1.25E-03

  Trace(PS):                                    4.0000000000
  Electronic density on regular grids:         -3.9998776533        0.0001223467
  Core density on regular grids:                3.9961648024       -0.0038351976
  Total charge density on r-space grids:       -0.0037128509
  Total charge density g-space grids:          -0.0037128509

    65 P_Mix/Diag. 0.40E+00    0.0     1.08805947        -3.7507382136 -1.24E-03

  Trace(PS):                                    4.0000000000
  Electronic density on regular grids:         -3.9998845984        0.0001154016
  Core density on regular grids:                3.9961648024       -0.0038351976
  Total charge density on r-space grids:       -0.0037197960
  Total charge density g-space grids:          -0.0037197960

    66 P_Mix/Diag. 0.40E+00    0.0     1.27267138        -3.7503245877  4.14E-04

  Trace(PS):                                    4.0000000000
  Electronic density on regular grids:         -3.9998857332        0.0001142668
  Core density on regular grids:                3.9961648024       -0.0038351976
  Total charge density on r-space grids:       -0.0037209308
  Total charge density g-space grids:          -0.0037209308

    67 P_Mix/Diag. 0.40E+00    0.0     1.14554755        -3.7495854967  7.39E-04

  Trace(PS):                                    4.0000000000
  Electronic density on regular grids:         -3.9998712323        0.0001287677
  Core density on regular grids:                3.9961648024       -0.0038351976
  Total charge density on r-space grids:       -0.0037064300
  Total charge density g-space grids:          -0.0037064300

    68 P_Mix/Diag. 0.40E+00    0.0     1.24080721        -3.7507533071 -1.17E-03

  Trace(PS):                                    4.0000000000
  Electronic density on regular grids:         -3.9998810911        0.0001189089
  Core density on regular grids:                3.9961648024       -0.0038351976
  Total charge density on r-space grids:       -0.0037162888
  Total charge density g-space grids:          -0.0037162888

    69 P_Mix/Diag. 0.40E+00    0.0     1.48655215        -3.7494995722  1.25E-03

  Trace(PS):                                    4.0000000000
  Electronic density on regular grids:         -3.9998837927        0.0001162073
  Core density on regular grids:                3.9961648024       -0.0038351976
  Total charge density on r-space grids:       -0.0037189904
  Total charge density g-space grids:          -0.0037189904

    70 P_Mix/Diag. 0.40E+00    0.0     1.08804041        -3.7507384571 -1.24E-03

  Trace(PS):                                    4.0000000000
  Electronic density on regular grids:         -3.9998699169        0.0001300831
  Core density on regular grids:                3.9961648024       -0.0038351976
  Total charge density on r-space grids:       -0.0037051146
  Total charge density g-space grids:          -0.0037051146

    71 P_Mix/Diag. 0.40E+00    0.0     1.27266866        -3.7503239939  4.14E-04

  Trace(PS):                                    4.0000000000
  Electronic density on regular grids:         -3.9998771778        0.0001228222
  Core density on regular grids:                3.9961648024       -0.0038351976
  Total charge density on r-space grids:       -0.0037123754
  Total charge density g-space grids:          -0.0037123754

    72 P_Mix/Diag. 0.40E+00    0.0     1.14548109        -3.7495851486  7.39E-04

  Trace(PS):                                    4.0000000000
  Electronic density on regular grids:         -3.9998845255        0.0001154745
  Core density on regular grids:                3.9961648024       -0.0038351976
  Total charge density on r-space grids:       -0.0037197231
  Total charge density g-space grids:          -0.0037197231

    73 P_Mix/Diag. 0.40E+00    0.0     1.24065003        -3.7507537495 -1.17E-03

  Trace(PS):                                    4.0000000000
  Electronic density on regular grids:         -3.9998705537        0.0001294463
  Core density on regular grids:                3.9961648024       -0.0038351976
  Total charge density on r-space grids:       -0.0037057513
  Total charge density g-space grids:          -0.0037057513

    74 P_Mix/Diag. 0.40E+00    0.0     1.48655089        -3.7494990340  1.25E-03

  Trace(PS):                                    4.0000000000
  Electronic density on regular grids:         -3.9998776505        0.0001223495
  Core density on regular grids:                3.9961648024       -0.0038351976
  Total charge density on r-space grids:       -0.0037128481
  Total charge density g-space grids:          -0.0037128481

    75 P_Mix/Diag. 0.40E+00    0.0     1.08756892        -3.7507381655 -1.24E-03

  Trace(PS):                                    4.0000000000
  Electronic density on regular grids:         -3.9998845923        0.0001154077
  Core density on regular grids:                3.9961648024       -0.0038351976
  Total charge density on r-space grids:       -0.0037197899
  Total charge density g-space grids:          -0.0037197899

    76 P_Mix/Diag. 0.40E+00    0.0     1.27266854        -3.7503239855  4.14E-04

  Trace(PS):                                    4.0000000000
  Electronic density on regular grids:         -3.9998857598        0.0001142402
  Core density on regular grids:                3.9961648024       -0.0038351976
  Total charge density on r-space grids:       -0.0037209574
  Total charge density g-space grids:          -0.0037209574

    77 P_Mix/Diag. 0.40E+00    0.0     1.14425441        -3.7495852938  7.39E-04

  Trace(PS):                                    4.0000000000
  Electronic density on regular grids:         -3.9998712344        0.0001287656
  Core density on regular grids:                3.9961648024       -0.0038351976
  Total charge density on r-space grids:       -0.0037064320
  Total charge density g-space grids:          -0.0037064320

    78 P_Mix/Diag. 0.40E+00    0.0     1.23743939        -3.7507518844 -1.17E-03

  Trace(PS):                                    4.0000000000
  Electronic density on regular grids:         -3.9998810633        0.0001189367
  Core density on regular grids:                3.9961648024       -0.0038351976
  Total charge density on r-space grids:       -0.0037162609
  Total charge density g-space grids:          -0.0037162609

    79 P_Mix/Diag. 0.40E+00    0.0     1.48656114        -3.7494968020  1.26E-03

  Trace(PS):                                    4.0000000000
  Electronic density on regular grids:         -3.9998837831        0.0001162169
  Core density on regular grids:                3.9961648024       -0.0038351976
  Total charge density on r-space grids:       -0.0037189807
  Total charge density g-space grids:          -0.0037189807

    80 P_Mix/Diag. 0.40E+00    0.0     1.07833363        -3.7507375031 -1.24E-03

  Trace(PS):                                    4.0000000000
  Electronic density on regular grids:         -3.9998699933        0.0001300067
  Core density on regular grids:                3.9961648024       -0.0038351976
  Total charge density on r-space grids:       -0.0037051910
  Total charge density g-space grids:          -0.0037051910

    81 P_Mix/Diag. 0.40E+00    0.0     1.27268372        -3.7503121637  4.25E-04

  Trace(PS):                                    4.0000000000
  Electronic density on regular grids:         -3.9998772266        0.0001227734
  Core density on regular grids:                3.9961648024       -0.0038351976
  Total charge density on r-space grids:       -0.0037124242
  Total charge density g-space grids:          -0.0037124242

    82 P_Mix/Diag. 0.40E+00    0.0     1.12043345        -3.7495810789  7.31E-04

  Trace(PS):                                    4.0000000000
  Electronic density on regular grids:         -3.9998843290        0.0001156710
  Core density on regular grids:                3.9961648024       -0.0038351976
  Total charge density on r-space grids:       -0.0037195266
  Total charge density g-space grids:          -0.0037195266

    83 P_Mix/Diag. 0.40E+00    0.0     1.17800633        -3.7507267172 -1.15E-03

  Trace(PS):                                    4.0000000000
  Electronic density on regular grids:         -3.9998709325        0.0001290675
  Core density on regular grids:                3.9961648024       -0.0038351976
  Total charge density on r-space grids:       -0.0037061302
  Total charge density g-space grids:          -0.0037061302

    84 P_Mix/Diag. 0.40E+00    0.0     1.48671978        -3.7494507316  1.28E-03

  Trace(PS):                                    4.0000000000
  Electronic density on regular grids:         -3.9998778848        0.0001221152
  Core density on regular grids:                3.9961648024       -0.0038351976
  Total charge density on r-space grids:       -0.0037130825
  Total charge density g-space grids:          -0.0037130825

    85 P_Mix/Diag. 0.40E+00    0.0     1.06100841        -3.7507214994 -1.27E-03

  Trace(PS):                                    4.0000000000
  Electronic density on regular grids:         -3.9998833023        0.0001166977
  Core density on regular grids:                3.9961648024       -0.0038351976
  Total charge density on r-space grids:       -0.0037184999
  Total charge density g-space grids:          -0.0037184999

    86 P_Mix/Diag. 0.40E+00    0.0     1.27289766        -3.7501541189  5.67E-04

  Trace(PS):                                    4.0000000000
  Electronic density on regular grids:         -3.9998849943        0.0001150057
  Core density on regular grids:                3.9961648024       -0.0038351976
  Total charge density on r-space grids:       -0.0037201919
  Total charge density g-space grids:          -0.0037201919

    87 P_Mix/Diag. 0.40E+00    0.0     1.35555891        -3.7495266464  6.27E-04

  Trace(PS):                                    4.0000000000
  Electronic density on regular grids:         -3.9998734865        0.0001265135
  Core density on regular grids:                3.9961648024       -0.0038351976
  Total charge density on r-space grids:       -0.0037086841
  Total charge density g-space grids:          -0.0037086841

    88 P_Mix/Diag. 0.40E+00    0.0     1.36810477        -3.7504910294 -9.64E-04

  Trace(PS):                                    4.0000000000
  Electronic density on regular grids:         -3.9998778918        0.0001221082
  Core density on regular grids:                3.9961648024       -0.0038351976
  Total charge density on r-space grids:       -0.0037130894
  Total charge density g-space grids:          -0.0037130894

    89 P_Mix/Diag. 0.40E+00    0.0     1.48773711        -3.7492619048  1.23E-03

  Trace(PS):                                    4.0000000000
  Electronic density on regular grids:         -3.9998819487        0.0001180513
  Core density on regular grids:                3.9961648024       -0.0038351976
  Total charge density on r-space grids:       -0.0037171463
  Total charge density g-space grids:          -0.0037171463

    90 P_Mix/Diag. 0.40E+00    0.0     1.52939934        -3.7506541123 -1.39E-03

  Trace(PS):                                    4.0000000000
  Electronic density on regular grids:         -3.9998751861        0.0001248139
  Core density on regular grids:                3.9961648024       -0.0038351976
  Total charge density on r-space grids:       -0.0037103837
  Total charge density g-space grids:          -0.0037103837

    91 P_Mix/Diag. 0.40E+00    0.0     1.53700717        -3.7498475778  8.07E-04

  Trace(PS):                                    4.0000000000
  Electronic density on regular grids:         -3.9998759311        0.0001240689
  Core density on regular grids:                3.9961648024       -0.0038351976
  Total charge density on r-space grids:       -0.0037111288
  Total charge density g-space grids:          -0.0037111288

    92 P_Mix/Diag. 0.40E+00    0.0     1.53205861        -3.7489843276  8.63E-04

  Trace(PS):                                    4.0000000000
  Electronic density on regular grids:         -3.9998808329        0.0001191671
  Core density on regular grids:                3.9961648024       -0.0038351976
  Total charge density on r-space grids:       -0.0037160305
  Total charge density g-space grids:          -0.0037160305

    93 P_Mix/Diag. 0.40E+00    0.0     1.55494886        -3.7508133970 -1.83E-03

  Trace(PS):                                    4.0000000000
  Electronic density on regular grids:         -3.9998763868        0.0001236132
  Core density on regular grids:                3.9961648024       -0.0038351976
  Total charge density on r-space grids:       -0.0037115844
  Total charge density g-space grids:          -0.0037115844

    94 P_Mix/Diag. 0.40E+00    0.0     1.56329567        -3.7496983308  1.12E-03

  Trace(PS):                                    4.0000000000
  Electronic density on regular grids:         -3.9998753919        0.0001246081
  Core density on regular grids:                3.9961648024       -0.0038351976
  Total charge density on r-space grids:       -0.0037105896
  Total charge density g-space grids:          -0.0037105896

    95 P_Mix/Diag. 0.40E+00    0.0     1.54106012        -3.7489331105  7.65E-04

  Trace(PS):                                    4.0000000000
  Electronic density on regular grids:         -3.9998805192        0.0001194808
  Core density on regular grids:                3.9961648024       -0.0038351976
  Total charge density on r-space grids:       -0.0037157168
  Total charge density g-space grids:          -0.0037157168

    96 P_Mix/Diag. 0.40E+00    0.0     1.55442650        -3.7508403693 -1.91E-03

  Trace(PS):                                    4.0000000000
  Electronic density on regular grids:         -3.9998767912        0.0001232088
  Core density on regular grids:                3.9961648024       -0.0038351976
  Total charge density on r-space grids:       -0.0037119889
  Total charge density g-space grids:          -0.0037119889

    97 P_Mix/Diag. 0.40E+00    0.0     1.56588735        -3.7496694504  1.17E-03

  Trace(PS):                                    4.0000000000
  Electronic density on regular grids:         -3.9998752569        0.0001247431
  Core density on regular grids:                3.9961648024       -0.0038351976
  Total charge density on r-space grids:       -0.0037104545
  Total charge density g-space grids:          -0.0037104545

    98 P_Mix/Diag. 0.40E+00    0.0     1.54286167        -3.7489234475  7.46E-04

  Trace(PS):                                    4.0000000000
  Electronic density on regular grids:         -3.9998804339        0.0001195661
  Core density on regular grids:                3.9961648024       -0.0038351976
  Total charge density on r-space grids:       -0.0037156315
  Total charge density g-space grids:          -0.0037156315

    99 P_Mix/Diag. 0.40E+00    0.0     1.55374735        -3.7508447192 -1.92E-03

  Trace(PS):                                    4.0000000000
  Electronic density on regular grids:         -3.9998769132        0.0001230868
  Core density on regular grids:                3.9961648024       -0.0038351976
  Total charge density on r-space grids:       -0.0037121108
  Total charge density g-space grids:          -0.0037121108

   100 P_Mix/Diag. 0.40E+00    0.0     1.56612091        -3.7496639538  1.18E-03

  *** SCF run NOT converged ***


  Electronic density on regular grids:         -3.9998769132        0.0001230868
  Core density on regular grids:                3.9961648024       -0.0038351976
  Total charge density on r-space grids:       -0.0037121108
  Total charge density g-space grids:          -0.0037121108

  Overlap energy of the core charge distribution:               0.00000000000000
  Self energy of the core charge distribution:                -10.25799242814102
  Core Hamiltonian energy:                                      1.92792133003682
  Hartree energy:                                               5.54721881974259
  Exchange-correlation energy:                                 -0.96681167538999

  Total energy:                                                -3.74966395375160


 MULLIKEN POPULATION ANALYSIS

 #  Atom  Element  Kind  Atomic population                Net charge
       1     Si       1          4.000000                  0.000000
 # Total charge                  4.000000                  0.000000


 !-----------------------------------------------------------------------------!
                           Hirschfeld Charges

  #Atom  Element  Kind  Ref Charge     Population                     Net charge
      1       Si     1       4.000          3.404                          0.596

  Total Charge                                                             0.596
 !-----------------------------------------------------------------------------!

  Trace(PS):                                    4.0000000000
  Electronic density on regular grids:         -3.9998727049        0.0001272951
  Core density on regular grids:                3.9961648024       -0.0038351976
  Total charge density on r-space grids:       -0.0037079025
  Total charge density g-space grids:          -0.0037079025


 ENERGY| Total FORCE_EVAL ( QS ) energy (a.u.):               -3.725685784836235


 -------------------------------------------------------------------------------
 -                                                                             -
 -                                DBCSR STATISTICS                             -
 -                                                                             -
 -------------------------------------------------------------------------------
 COUNTER                                      CPU                  ACC      ACC%
 number of processed stacks                   101                    0       0.0
 matmuls inhomo. stacks                         0                    0       0.0
 matmuls total                                101                    0       0.0
 flops  13 x   13 x    2                    68276                    0       0.0
 flops total                                68276                    0       0.0
 marketing flops                            68276
 -------------------------------------------------------------------------------

 -------------------------------------------------------------------------------
 ----                             MULTIGRID INFO                            ----
 -------------------------------------------------------------------------------
 count for grid        1:            311          cutoff [a.u.]           25.00
 count for grid        2:            328          cutoff [a.u.]            8.33
 total gridlevel count  :            639

 -------------------------------------------------------------------------------
 -                                                                             -
 -                         MESSAGE PASSING PERFORMANCE                         -
 -                                                                             -
 -------------------------------------------------------------------------------

 ROUTINE             CALLS  TOT TIME [s]  AVE VOLUME [Bytes]  PERFORMANCE [MB/s]
 MP_Group                3         0.000
 MP_Bcast              102         0.000                  4.                1.57
 MP_Allreduce         1170         0.001                  8.               17.22
 MP_Sync                 2         0.000
 MP_Alltoall          2316         0.001                522.              933.52
 MP_Wait              2424         0.001
 MP_ISend              808         0.001                228.              134.83
 MP_IRecv              808         0.000                228.              424.38
 MP_Memory            2424         0.001
 -------------------------------------------------------------------------------


 -------------------------------------------------------------------------------
 -                                                                             -
 -                           R E F E R E N C E S                               -
 -                                                                             -
 -------------------------------------------------------------------------------
 
 CP2K version 2.6.2, the CP2K developers group (2015).
 CP2K is freely available from http://www.cp2k.org/ .

 Borstnik, U; VandeVondele, J; Weber, V; Hutter, J. 
 PARALLEL COMPUTING, 40 (5-6), 47-58 (2014). 
 Sparse matrix multiplication: The distributed block-compressed sparse
 row library.
 http://dx.doi.org/10.1016/j.parco.2014.03.012


 Hutter, J; Iannuzzi, M; Schiffmann, F; VandeVondele, J. 
 WILEY INTERDISCIPLINARY REVIEWS-COMPUTATIONAL MOLECULAR SCIENCE, 4 (1), 15-25 (2014). 
 CP2K: atomistic simulations of condensed matter systems.
 http://dx.doi.org/10.1002/wcms.1159


 Krack, M. 
 THEORETICAL CHEMISTRY ACCOUNTS, 114 (1-3), 145-152 (2005). 
 Pseudopotentials for H to Kr optimized for gradient-corrected
 exchange-correlation functionals.
 http://dx.doi.org/10.1007/s00214-005-0655-y


 VandeVondele, J; Krack, M; Mohamed, F; Parrinello, M; Chassaing, T;
 Hutter, J. COMPUTER PHYSICS COMMUNICATIONS, 167 (2), 103-128 (2005). 
 QUICKSTEP: Fast and accurate density functional calculations using a
 mixed Gaussian and plane waves approach.
 http://dx.doi.org/10.1016/j.cpc.2004.12.014


 Frigo, M; Johnson, SG. 
 PROCEEDINGS OF THE IEEE, 93 (2), 216-231 (2005). 
 The design and implementation of FFTW3.
 http://dx.doi.org/10.1109/JPROC.2004.840301


 Hartwigsen, C; Goedecker, S; Hutter, J. 
 PHYSICAL REVIEW B, 58 (7), 3641-3662 (1998). 
 Relativistic separable dual-space Gaussian pseudopotentials from H to Rn.
 http://dx.doi.org/10.1103/PhysRevB.58.3641


 Lippert, G; Hutter, J; Parrinello, M. 
 MOLECULAR PHYSICS, 92 (3), 477-487 (1997). 
 A hybrid Gaussian and plane wave density functional scheme.
 http://dx.doi.org/10.1080/002689797170220


 Goedecker, S; Teter, M; Hutter, J. 
 PHYSICAL REVIEW B, 54 (3), 1703-1710 (1996). 
 Separable dual-space Gaussian pseudopotentials.
 http://dx.doi.org/10.1103/PhysRevB.54.1703


 -------------------------------------------------------------------------------
 -                                                                             -
 -                                T I M I N G                                  -
 -                                                                             -
 -------------------------------------------------------------------------------
 SUBROUTINE                       CALLS  ASD         SELF TIME        TOTAL TIME
                                MAXIMUM       AVERAGE  MAXIMUM  AVERAGE  MAXIMUM
 CP2K                                 1  1.0    0.002    0.002    0.555    0.555
 qs_forces                            1  2.0    0.000    0.000    0.529    0.529
 qs_energies_scf                      1  3.0    0.000    0.000    0.525    0.525
 scf_env_do_scf                       1  4.0    0.000    0.000    0.510    0.510
 scf_env_do_scf_inner_loop          100  5.0    0.007    0.007    0.510    0.510
 rebuild_ks_matrix                  101  7.0    0.000    0.000    0.265    0.265
 qs_ks_build_kohn_sham_matrix       101  8.0    0.008    0.008    0.265    0.265
 qs_ks_update_qs_env                100  6.0    0.001    0.001    0.264    0.264
 fft_wrap_pw1pw2                    607 10.0    0.002    0.002    0.164    0.164
 fft_wrap_pw1pw2_30                 405 10.7    0.008    0.008    0.150    0.150
 qs_rho_update_rho                  101  6.0    0.000    0.000    0.137    0.137
 calculate_rho_elec                 101  7.0    0.047    0.047    0.136    0.136
 sum_up_and_integrate               101  9.0    0.002    0.002    0.114    0.114
 integrate_v_rspace                 101 10.0    0.059    0.059    0.112    0.112
 fft3d_s                            608 12.0    0.101    0.101    0.111    0.111
 density_rs2pw                      101  8.0    0.001    0.001    0.088    0.088
 qs_vxc_create                      101  9.0    0.001    0.001    0.078    0.078
 xc_vxc_pw_create                   101 10.0    0.009    0.009    0.077    0.077
 xc_rho_set_and_dset_create         101 11.0    0.001    0.001    0.068    0.068
 xc_functional_eval                 101 12.0    0.065    0.065    0.065    0.065
 calculate_dm_sparse                100  6.0    0.000    0.000    0.055    0.055
 cp_dbcsr_plus_fm_fm_t_native       101  7.0    0.001    0.001    0.055    0.055
 potential_pw2rs                    101 11.0    0.001    0.001    0.048    0.048
 dbcsr_mm_cannon_multiply           101  8.0    0.004    0.004    0.041    0.041
 quickstep_create_force_env           1  2.0    0.000    0.000    0.023    0.023
 dbcsr_complete_redistribute        302  9.0    0.010    0.010    0.022    0.022
 copy_dbcsr_to_fm                   400  7.0    0.003    0.003    0.022    0.022
 pw_poisson_solve                   101  9.0    0.016    0.016    0.021    0.021
 pw_gather_s                        304 12.0    0.021    0.021    0.021    0.021
 pw_scatter_s                       303 12.0    0.020    0.020    0.020    0.020
 qs_diis_b_step                      99  6.0    0.001    0.001    0.017    0.017
 eigensolver                        100  6.0    0.000    0.000    0.015    0.015
 create_qs_kind_set                   1  3.0    0.000    0.000    0.014    0.014
 read_qs_kind                         1  4.0    0.008    0.008    0.014    0.014
 pw_copy                            606 10.8    0.013    0.013    0.013    0.013
 dbcsr_finalize                     726 10.0    0.002    0.002    0.013    0.013
 dbcsr_make_images                  202  9.0    0.000    0.000    0.012    0.012
 make_images                        202 10.0    0.002    0.002    0.012    0.012
 fft_wrap_pw1pw2_10                 202 11.5    0.001    0.001    0.011    0.011
 -------------------------------------------------------------------------------

  **** **** ******  **  PROGRAM ENDED AT                 2016-04-25 14:43:56.420
 ***** ** ***  *** **   PROGRAM RAN ON                       lauri-Lenovo-Z50-70
 **    ****   ******    PROGRAM RAN BY                                     lauri
 ***** **    ** ** **   PROGRAM PROCESS ID                                 17857
  **** **  *******  **  PROGRAM STOPPED IN /home/lauri/Dropbox/nomad-dev/nomad-l
                                           ab-base/parsers/cp2k/test/unittests/c
                                           p2k_2.6.2/configuration_periodic_dime
                                           nsions/z
