 DBCSR| Multiplication driver                                               BLAS
 DBCSR| Multrec recursion limit                                              512
 DBCSR| Multiplication stack size                                           1000
 DBCSR| Maximum elements for images                                    UNLIMITED
 DBCSR| Randmat seed                                                    12341313
 DBCSR| Multiplication size stacks                                             3
 DBCSR| Use MPI memory allocation                                              T
 DBCSR| Use RMA algorithm                                                      F
 DBCSR| Use Communication thread                                               T
 DBCSR| Communication thread load                                             87


  **** **** ******  **  PROGRAM STARTED AT               2017-11-27 10:28:11.374
 ***** ** ***  *** **   PROGRAM STARTED ON                             lenovo700
 **    ****   ******    PROGRAM STARTED BY                                 lauri
 ***** **    ** ** **   PROGRAM PROCESS ID                                  9143
  **** **  *******  **  PROGRAM STARTED IN /home/lauri/Dropbox/nomad-dev/WP1/nom
                                           ad-lab-base/parsers/cp2k/regtests/cp2
                                           k_2.6.2/vdw/grimme_d2

 CP2K| version string:                                          CP2K version 3.0
 CP2K| source code revision number:                                    svn:16458
 CP2K| cp2kflags: libint fftw3 libxc parallel mpi2 scalapack                    
 CP2K| is freely available from                            https://www.cp2k.org/
 CP2K| Program compiled at                            ma 4.7.2016 10.44.00 +0300
 CP2K| Program compiled on                                             lenovo700
 CP2K| Program compiled for                          Linux-x86-64-gfortran_basic
 CP2K| Data directory path                          /home/lauri/cp2k30/cp2k/data
 CP2K| Input file name                                              dftd2_t1.inp

 GLOBAL| Force Environment number                                              1
 GLOBAL| Basis set file name                                     ../../POTENTIAL
 GLOBAL| MM Potential file name                                     MM_POTENTIAL
 GLOBAL| Coordinate file name                                      __STD_INPUT__
 GLOBAL| Method name                                                        CP2K
 GLOBAL| Project name                                                   dftd2_t1
 GLOBAL| Preferred FFT library                                             FFTW3
 GLOBAL| Preferred diagonalization lib.                                       SL
 GLOBAL| Run type                                                         ENERGY
 GLOBAL| All-to-all communication in single precision                          F
 GLOBAL| FFTs using library dependent lengths                                  F
 GLOBAL| Global print level                                               MEDIUM
 GLOBAL| Total number of message passing processes                             1
 GLOBAL| Number of threads for this process                                    1
 GLOBAL| This output is from process                                           0
 GLOBAL| CPU model name :  Intel(R) Core(TM) i7-6700HQ CPU @ 2.60GHz

 MEMORY| system memory details [Kb]
 MEMORY|                        rank 0           min           max       average
 MEMORY| MemTotal              7961756       7961756       7961756       7961756
 MEMORY| MemFree                734256        734256        734256        734256
 MEMORY| Buffers               1073500       1073500       1073500       1073500
 MEMORY| Cached                2480048       2480048       2480048       2480048
 MEMORY| Slab                   681668        681668        681668        681668
 MEMORY| SReclaimable           625592        625592        625592        625592
 MEMORY| MemLikelyFree         4913396       4913396       4913396       4913396


 *** Fundamental physical constants (SI units) ***

 *** Literature: B. J. Mohr and B. N. Taylor,
 ***             CODATA recommended values of the fundamental physical
 ***             constants: 2006, Web Version 5.1
 ***             http://physics.nist.gov/constants

 Speed of light in vacuum [m/s]                             2.99792458000000E+08
 Magnetic constant or permeability of vacuum [N/A**2]       1.25663706143592E-06
 Electric constant or permittivity of vacuum [F/m]          8.85418781762039E-12
 Planck constant (h) [J*s]                                  6.62606896000000E-34
 Planck constant (h-bar) [J*s]                              1.05457162825177E-34
 Elementary charge [C]                                      1.60217648700000E-19
 Electron mass [kg]                                         9.10938215000000E-31
 Electron g factor [ ]                                     -2.00231930436220E+00
 Proton mass [kg]                                           1.67262163700000E-27
 Fine-structure constant                                    7.29735253760000E-03
 Rydberg constant [1/m]                                     1.09737315685270E+07
 Avogadro constant [1/mol]                                  6.02214179000000E+23
 Boltzmann constant [J/K]                                   1.38065040000000E-23
 Atomic mass unit [kg]                                      1.66053878200000E-27
 Bohr radius [m]                                            5.29177208590000E-11

 *** Conversion factors ***

 [u] -> [a.u.]                                              1.82288848426455E+03
 [Angstrom] -> [Bohr] = [a.u.]                              1.88972613288564E+00
 [a.u.] = [Bohr] -> [Angstrom]                              5.29177208590000E-01
 [a.u.] -> [s]                                              2.41888432650478E-17
 [a.u.] -> [fs]                                             2.41888432650478E-02
 [a.u.] -> [J]                                              4.35974393937059E-18
 [a.u.] -> [N]                                              8.23872205491840E-08
 [a.u.] -> [K]                                              3.15774647902944E+05
 [a.u.] -> [kJ/mol]                                         2.62549961709828E+03
 [a.u.] -> [kcal/mol]                                       6.27509468713739E+02
 [a.u.] -> [Pa]                                             2.94210107994716E+13
 [a.u.] -> [bar]                                            2.94210107994716E+08
 [a.u.] -> [atm]                                            2.90362800883016E+08
 [a.u.] -> [eV]                                             2.72113838565563E+01
 [a.u.] -> [Hz]                                             6.57968392072181E+15
 [a.u.] -> [1/cm] (wave numbers)                            2.19474631370540E+05
 [a.u./Bohr**2] -> [1/cm]                                   5.14048714338585E+03
 

 CELL_TOP| Volume [angstrom^3]:                                          216.000
 CELL_TOP| Vector a [angstrom     6.000     0.000     0.000    |a| =       6.000
 CELL_TOP| Vector b [angstrom     0.000     6.000     0.000    |b| =       6.000
 CELL_TOP| Vector c [angstrom     0.000     0.000     6.000    |c| =       6.000
 CELL_TOP| Angle (b,c), alpha [degree]:                                   90.000
 CELL_TOP| Angle (a,c), beta  [degree]:                                   90.000
 CELL_TOP| Angle (a,b), gamma [degree]:                                   90.000
 CELL_TOP| Numerically orthorhombic:                                         YES

 GENERATE|  Preliminary Number of Bonds generated:                             0
 GENERATE|  Achieved consistency in connectivity generation.

 CELL| Volume [angstrom^3]:                                              216.000
 CELL| Vector a [angstrom]:       6.000     0.000     0.000    |a| =       6.000
 CELL| Vector b [angstrom]:       0.000     6.000     0.000    |b| =       6.000
 CELL| Vector c [angstrom]:       0.000     0.000     6.000    |c| =       6.000
 CELL| Angle (b,c), alpha [degree]:                                       90.000
 CELL| Angle (a,c), beta  [degree]:                                       90.000
 CELL| Angle (a,b), gamma [degree]:                                       90.000
 CELL| Numerically orthorhombic:                                             YES

 CELL_REF| Volume [angstrom^3]:                                          216.000
 CELL_REF| Vector a [angstrom     6.000     0.000     0.000    |a| =       6.000
 CELL_REF| Vector b [angstrom     0.000     6.000     0.000    |b| =       6.000
 CELL_REF| Vector c [angstrom     0.000     0.000     6.000    |c| =       6.000
 CELL_REF| Angle (b,c), alpha [degree]:                                   90.000
 CELL_REF| Angle (a,c), beta  [degree]:                                   90.000
 CELL_REF| Angle (a,b), gamma [degree]:                                   90.000
 CELL_REF| Numerically orthorhombic:                                         YES

 *******************************************************************************
 *******************************************************************************
 **                                                                           **
 **     #####                         ##              ##                      **
 **    ##   ##            ##          ##              ##                      **
 **   ##     ##                       ##            ######                    **
 **   ##     ##  ##   ##  ##   #####  ##  ##   ####   ##    #####    #####    **
 **   ##     ##  ##   ##  ##  ##      ## ##   ##      ##   ##   ##  ##   ##   **
 **   ##  ## ##  ##   ##  ##  ##      ####     ###    ##   ######   ######    **
 **    ##  ###   ##   ##  ##  ##      ## ##      ##   ##   ##       ##        **
 **     #######   #####   ##   #####  ##  ##  ####    ##    #####   ##        **
 **           ##                                                    ##        **
 **                                                                           **
 **                                                ... make the atoms dance   **
 **                                                                           **
 **            Copyright (C) by CP2K Developers Group (2000 - 2015)           **
 **                                                                           **
 *******************************************************************************

 DFT| Spin restricted Kohn-Sham (RKS) calculation                            RKS
 DFT| Multiplicity                                                             1
 DFT| Number of spin states                                                    1
 DFT| Charge                                                                   0
 DFT| Self-interaction correction (SIC)                                       NO
 DFT| Cutoffs: density                                              1.000000E-10
 DFT|          gradient                                             1.000000E-10
 DFT|          tau                                                  1.000000E-10
 DFT|          cutoff_smoothing_range                               0.000000E+00
 DFT| XC density smoothing                                                  NONE
 DFT| XC derivatives                                                          PW
 FUNCTIONAL| ROUTINE=NEW
 FUNCTIONAL| PBE:
 FUNCTIONAL| J.P.Perdew, K.Burke, M.Ernzerhof, Phys. Rev. Letter, vol. 77, n 18,
 FUNCTIONAL|  pp. 3865-3868, (1996){spin unpolarized}                           
 vdW POTENTIAL|                                                   Pair Potential
 vdW POTENTIAL|                   Potential Form: S. Grimme, JCC 27: 1787 (2006)
 vdW POTENTIAL|                   Cutoff Radius [Bohr]:                    20.00
 vdW POTENTIAL|                   Scaling Factor:                         0.7500
 vdW POTENTIAL|                   Exp Prefactor for Damping:                20.0
 vdW PARAMETER|  Atom=C    C6[J*nm^6*mol^-1]=  1.7500         r(vdW)[A]=  1.4520
 vdW PARAMETER|  Atom=H    C6[J*nm^6*mol^-1]=  0.1400         r(vdW)[A]=  1.0010

 QS| Method:                                                                 GPW
 QS| Density plane wave grid type                        NON-SPHERICAL FULLSPACE
 QS| Number of grid levels:                                                    1
 QS| Density cutoff [a.u.]:                                                 50.0
 QS| Grid level progression factor:                                          3.0
 QS| Relative density cutoff [a.u.]:                                        20.0
 QS| Consistent realspace mapping and integration 
 QS| Interaction thresholds: eps_pgf_orb:                                1.0E-05
 QS|                         eps_filter_matrix:                          0.0E+00
 QS|                         eps_core_charge:                            1.0E-12
 QS|                         eps_rho_gspace:                             1.0E-10
 QS|                         eps_rho_rspace:                             1.0E-10
 QS|                         eps_gvg_rspace:                             1.0E-05
 QS|                         eps_ppl:                                    1.0E-02
 QS|                         eps_ppnl:                                   1.0E-07


 ATOMIC KIND INFORMATION

  1. Atomic kind: C                                     Number of atoms:       2

     Orbital Basis Set                                                  DZVP-GTH

       Number of orbital shell sets:                                           2
       Number of orbital shells:                                               5
       Number of primitive Cartesian functions:                                5
       Number of Cartesian basis functions:                                   14
       Number of spherical basis functions:                                   13
       Norm type:                                                              2

       Normalised Cartesian orbitals:

                        Set   Shell   Orbital            Exponent    Coefficient

                          1       1    2s                4.336238       0.319274
                                                         1.288184      -0.025219
                                                         0.403777      -0.248447
                                                         0.118788      -0.057170

                          1       2    3s                4.336238       0.000000
                                                         1.288184       0.000000
                                                         0.403777       0.000000
                                                         0.118788       0.144208

                          1       3    3px               4.336238      -0.783226
                                                         1.288184      -0.542954
                                                         0.403777      -0.216197
                                                         0.118788      -0.040339
                          1       3    3py               4.336238      -0.783226
                                                         1.288184      -0.542954
                                                         0.403777      -0.216197
                                                         0.118788      -0.040339
                          1       3    3pz               4.336238      -0.783226
                                                         1.288184      -0.542954
                                                         0.403777      -0.216197
                                                         0.118788      -0.040339

                          1       4    4px               4.336238       0.000000
                                                         1.288184       0.000000
                                                         0.403777       0.000000
                                                         0.118788       0.099404
                          1       4    4py               4.336238       0.000000
                                                         1.288184       0.000000
                                                         0.403777       0.000000
                                                         0.118788       0.099404
                          1       4    4pz               4.336238       0.000000
                                                         1.288184       0.000000
                                                         0.403777       0.000000
                                                         0.118788       0.099404

                          2       1    3dx2              0.550000       0.578155
                          2       1    3dxy              0.550000       1.001394
                          2       1    3dxz              0.550000       1.001394
                          2       1    3dy2              0.550000       0.578155
                          2       1    3dyz              0.550000       1.001394
                          2       1    3dz2              0.550000       0.578155

     Potential information for                                        GTH-PBE-q4

       Description:                       Goedecker-Teter-Hutter pseudopotential
                                           Goedecker et al., PRB 54, 1703 (1996)
                                          Hartwigsen et al., PRB 58, 3641 (1998)
                                                      Krack, TCA 114, 145 (2005)

       Gaussian exponent of the core charge distribution:               4.364419
       Electronic configuration (s p d ...):                               2   2

       Parameters of the local part of the GTH pseudopotential:

                          rloc        C1          C2          C3          C4
                        0.338471   -8.803674    1.339211

       Parameters of the non-local part of the GTH pseudopotential:

                   l      r(l)      h(i,j,l)

                   0    0.302576    9.622487
                   1    0.291507

  2. Atomic kind: H                                     Number of atoms:       8

     Orbital Basis Set                                                   DZV-GTH

       Number of orbital shell sets:                                           1
       Number of orbital shells:                                               2
       Number of primitive Cartesian functions:                                4
       Number of Cartesian basis functions:                                    2
       Number of spherical basis functions:                                    2
       Norm type:                                                              2

       Normalised Cartesian orbitals:

                        Set   Shell   Orbital            Exponent    Coefficient

                          1       1    1s                8.374435      -0.099425
                                                         1.805868      -0.148088
                                                         0.485253      -0.165568
                                                         0.165824      -0.102436

                          1       2    2s                8.374435       0.000000
                                                         1.805868       0.000000
                                                         0.485253       0.000000
                                                         0.165824       0.185202

     Potential information for                                        GTH-PBE-q1

       Description:                       Goedecker-Teter-Hutter pseudopotential
                                           Goedecker et al., PRB 54, 1703 (1996)
                                          Hartwigsen et al., PRB 58, 3641 (1998)
                                                      Krack, TCA 114, 145 (2005)

       Gaussian exponent of the core charge distribution:              12.500000
       Electronic configuration (s p d ...):                                   1

       Parameters of the local part of the GTH pseudopotential:

                          rloc        C1          C2          C3          C4
                        0.200000   -4.178900    0.724463


 MOLECULE KIND INFORMATION


 All atoms are their own molecule, skipping detailed information


 TOTAL NUMBERS AND MAXIMUM NUMBERS

  Total number of            - Atomic kinds:                                   2
                             - Atoms:                                         10
                             - Shell sets:                                    12
                             - Shells:                                        26
                             - Primitive Cartesian functions:                 42
                             - Cartesian basis functions:                     44
                             - Spherical basis functions:                     42

  Maximum angular momentum of- Orbital basis functions:                        2
                             - Local part of the GTH pseudopotential:          2
                             - Non-local part of the GTH pseudopotential:      0


 MODULE QUICKSTEP:  ATOMIC COORDINATES IN angstrom

  Atom  Kind  Element       X           Y           Z          Z(eff)       Mass

       1     1 C    6    7.499969    9.250001    7.500000      4.00      12.0107
       2     1 C    6    7.499969    5.750001    7.500000      4.00      12.0107
       3     2 H    1    8.205969    8.887002    6.753000      1.00       1.0079
       4     2 H    1    6.499969    8.887002    7.262000      1.00       1.0079
       5     2 H    1    7.793968    8.887002    8.485001      1.00       1.0079
       6     2 H    1    7.499969   10.340001    7.500000      1.00       1.0079
       7     2 H    1    7.199968    6.113001    6.517000      1.00       1.0079
       8     2 H    1    8.501968    6.113001    7.731000      1.00       1.0079
       9     2 H    1    6.798969    6.113001    8.252001      1.00       1.0079
      10     2 H    1    7.499969    4.660001    7.500000      1.00       1.0079




 SCF PARAMETERS         Density guess:                                    ATOMIC
                        --------------------------------------------------------
                        max_scf:                                               1
                        max_scf_history:                                       0
                        max_diis:                                              4
                        --------------------------------------------------------
                        eps_scf:                                        1.00E+00
                        eps_scf_history:                                0.00E+00
                        eps_diis:                                       1.00E-01
                        eps_eigval:                                     1.00E-05
                        --------------------------------------------------------
                        level_shift [a.u.]:                                 0.00
                        --------------------------------------------------------
                        Mixing method:                           DIRECT_P_MIXING
                        --------------------------------------------------------
                        No outer SCF

 PW_GRID| Information for grid number                                          1
 PW_GRID| Cutoff [a.u.]                                                     50.0
 PW_GRID| spherical cutoff:                                                   NO
 PW_GRID|   Bounds   1            -20      19                Points:          40
 PW_GRID|   Bounds   2            -20      19                Points:          40
 PW_GRID|   Bounds   3            -20      19                Points:          40
 PW_GRID| Volume element (a.u.^3)  0.2278E-01     Volume (a.u.^3)      1457.6403
 PW_GRID| Grid span                                                    FULLSPACE

 POISSON| Solver                                                        PERIODIC
 POISSON| Periodicity                                                        XYZ

 RS_GRID| Information for grid number                                          1
 RS_GRID|   Bounds   1            -20      19                Points:          40
 RS_GRID|   Bounds   2            -20      19                Points:          40
 RS_GRID|   Bounds   3            -20      19                Points:          40

 DISTRIBUTION OF THE PARTICLES (ROWS)
              Process row      Number of particles         Number of matrix rows
                        0                       10                            -1
                      Sum                       10                            -1

 DISTRIBUTION OF THE PARTICLES (COLUMNS)
              Process col      Number of particles      Number of matrix columns
                        0                       10                            -1
                      Sum                       10                            -1

 DISTRIBUTION OF THE NEIGHBOR LISTS
              Total number of particle pairs:                                 55
              Total number of matrix elements:                              1067
              Average number of particle pairs:                               55
              Maximum number of particle pairs:                               55
              Average number of matrix element:                             1067
              Maximum number of matrix elements:                            1067


 DISTRIBUTION OF THE OVERLAP MATRIX
              Number  of non-zero blocks:                                     55
              Percentage non-zero blocks:                                 100.00
              Average number of blocks per CPU:                               55
              Maximum number of blocks per CPU:                               55
              Average number of matrix elements per CPU:                    1077
              Maximum number of matrix elements per CPU:                    1077

 *** WARNING in qs_scf_initialization.F:633 :: the DIIS scheme is ***
 *** disabled, since EPS_DIIS < EPS_SCF                           ***


 Number of electrons:                                                         16
 Number of occupied orbitals:                                                  8
 Number of molecular orbitals:                                                 8

 Number of orbital functions:                                                 42
 Number of independent orbital functions:                                     42

 Extrapolation method: initial_guess

 Atomic guess: The first density matrix is obtained in terms of atomic orbitals
               and electronic configurations assigned to each atomic kind

 Guess for atomic kind: C

 Electronic structure
    Total number of core electrons                                          2.00
    Total number of valence electrons                                       4.00
    Total number of electrons                                               6.00
    Multiplicity                                                   not specified
    S   [  2.00] 2.00
    P      2.00


 *******************************************************************************
                  Iteration          Convergence                     Energy [au]
 *******************************************************************************
                          1        0.328742                      -5.169646579941
                          2        0.243515                      -5.235223059945
                          3        0.465111E-03                  -5.281500925955
                          4        0.978267E-05                  -5.281501120012
                          5        0.485923E-05                  -5.281501120068
                          6        0.323293E-05                  -5.281501120079
                          7        0.323945E-07                  -5.281501120087

 Energy components [Hartree]           Total Energy ::           -5.281501120087
                                        Band Energy ::           -1.321317258017
                                     Kinetic Energy ::            3.408508197754
                                   Potential Energy ::           -8.690009317841
                                      Virial (-V/T) ::            2.549505183402
                                        Core Energy ::           -8.288024395613
                                          XC Energy ::           -1.375173073932
                                     Coulomb Energy ::            4.381696349458
                       Total Pseudopotential Energy ::          -11.730921217682
                       Local Pseudopotential Energy ::          -12.370840120501
                    Nonlocal Pseudopotential Energy ::            0.639918902818
                                        Confinement ::            0.343886243151

 Orbital energies  State     L     Occupation   Energy[a.u.]          Energy[eV]

                       1     0          2.000      -0.485371          -13.207629

                       1     1          2.000      -0.175287           -4.769806


 Guess for atomic kind: H

 Electronic structure
    Total number of core electrons                                          0.00
    Total number of valence electrons                                       1.00
    Total number of electrons                                               1.00
    Multiplicity                                                   not specified
    S      1.00


 *******************************************************************************
                  Iteration          Convergence                     Energy [au]
 *******************************************************************************
                          1        0.147148E-02                  -0.421727317871
                          2        0.157098E-03                  -0.421729551161
                          3        0.196245E-07                  -0.421729576905

 Energy components [Hartree]           Total Energy ::           -0.421729576905
                                        Band Energy ::           -0.187783985745
                                     Kinetic Energy ::            0.476588596328
                                   Potential Energy ::           -0.898318173233
                                      Virial (-V/T) ::            1.884892295272
                                        Core Energy ::           -0.480162322097
                                          XC Energy ::           -0.252039893580
                                     Coulomb Energy ::            0.310472638772
                       Total Pseudopotential Energy ::           -0.973405372468
                       Local Pseudopotential Energy ::           -0.973405372468
                    Nonlocal Pseudopotential Energy ::            0.000000000000
                                        Confinement ::            0.166544540437

 Orbital energies  State     L     Occupation   Energy[a.u.]          Energy[eV]

                       1     0          1.000      -0.187784           -5.109862

 Re-scaling the density matrix to get the right number of electrons
                  # Electrons              Trace(P)               Scaling factor
                           16                16.000                        1.000


 SCF WAVEFUNCTION OPTIMIZATION

  Step     Update method      Time    Convergence         Total energy    Change
  ------------------------------------------------------------------------------

  Trace(PS):                                   16.0000000000
  Electronic density on regular grids:        -16.0000034880       -0.0000034880
  Core density on regular grids:               16.0004934380        0.0004934380
  Total charge density on r-space grids:        0.0004899499
  Total charge density g-space grids:           0.0004899499

     1 P_Mix/Diag. 0.40E+00    0.1     2.66066218       -15.1241447026 -1.51E+01

  Leaving inner SCF loop after reaching     1 steps.


  Electronic density on regular grids:        -16.0000034880       -0.0000034880
  Core density on regular grids:               16.0004934380        0.0004934380
  Total charge density on r-space grids:        0.0004899499
  Total charge density g-space grids:           0.0004899499

  Overlap energy of the core charge distribution:               0.00000249522169
  Self energy of the core charge distribution:                -37.95380752448555
  Core Hamiltonian energy:                                     10.92685808005643
  Hartree energy:                                              17.85044956271306
  Exchange-correlation energy:                                 -5.94473660189150
  Dispersion energy:                                           -0.00291071418172

  Total energy:                                               -15.12414470256759

 *** WARNING in qs_scf.F:479 :: SCF run NOT converged ***


 !-----------------------------------------------------------------------------!
                     Mulliken Population Analysis

 #  Atom  Element  Kind  Atomic population                           Net charge
       1     C        1          4.058148                             -0.058148
       2     C        1          4.058253                             -0.058253
       3     H        2          0.512220                              0.487780
       4     H        2          0.511441                              0.488559
       5     H        2          0.511938                              0.488062
       6     H        2          2.406257                             -1.406257
       7     H        2          0.511999                              0.488001
       8     H        2          0.511385                              0.488615
       9     H        2          0.512100                              0.487900
      10     H        2          2.406259                             -1.406259
 # Total charge                             16.000000                 -0.000000

 !-----------------------------------------------------------------------------!

 !-----------------------------------------------------------------------------!
                           Hirshfeld Charges

  #Atom  Element  Kind  Ref Charge     Population                    Net charge
      1       C      1       4.000          4.176                        -0.176
      2       C      1       4.000          4.176                        -0.176
      3       H      2       1.000          0.823                         0.177
      4       H      2       1.000          0.823                         0.177
      5       H      2       1.000          0.823                         0.177
      6       H      2       1.000          1.354                        -0.354
      7       H      2       1.000          0.824                         0.176
      8       H      2       1.000          0.823                         0.177
      9       H      2       1.000          0.823                         0.177
     10       H      2       1.000          1.354                        -0.354

  Total Charge                                                           -0.000
 !-----------------------------------------------------------------------------!

 ENERGY| Total FORCE_EVAL ( QS ) energy (a.u.):              -15.124144702567591


 -------------------------------------------------------------------------------
 -                                                                             -
 -                                DBCSR STATISTICS                             -
 -                                                                             -
 -------------------------------------------------------------------------------
 COUNTER                                    TOTAL       BLAS       SMM       ACC
 flops    2 x    2 x    8                    2304     100.0%      0.0%      0.0%
 flops   13 x    2 x    8                    3328     100.0%      0.0%      0.0%
 flops    2 x   13 x    8                    3328     100.0%      0.0%      0.0%
 flops   13 x   13 x    8                    8112     100.0%      0.0%      0.0%
 flops total                                17072     100.0%      0.0%      0.0%
 flops max/rank                             17072     100.0%      0.0%      0.0%
 matmuls inhomo. stacks                         0       0.0%      0.0%      0.0%
 matmuls total                                 55     100.0%      0.0%      0.0%
 number of processed stacks                     4     100.0%      0.0%      0.0%
 average stack size                                    13.8       0.0       0.0
 marketing flops                    28.224000E+03
 -------------------------------------------------------------------------------
 max memory usage/rank              75.988992E+06
 # max total images/rank                        1
 # MPI messages exchanged                       0
 # MPI messages filtered                        0
 MPI messages size (elements):
  total size                         0.000000E+00
  min size                           0.000000E+00
  max size                           0.000000E+00
  average size                       0.000000E+00
 MPI breakdown and total messages size (bytes):
             size <=      128                   0                        0
       128 < size <=     8192                   0                        0
      8192 < size <=    32768                   0                        0
     32768 < size <=   131072                   0                        0
    131072 < size <=  4194304                   0                        0
   4194304 < size <= 16777216                   0                        0
  16777216 < size                               0                        0
 -------------------------------------------------------------------------------

 MEMORY| Estimated peak process memory [MiB]                                  74

 -------------------------------------------------------------------------------
 ----                             MULTIGRID INFO                            ----
 -------------------------------------------------------------------------------
 total grid count     :          1435              cutoff [a.u.]           50.00

 -------------------------------------------------------------------------------
 -                                                                             -
 -                         MESSAGE PASSING PERFORMANCE                         -
 -                                                                             -
 -------------------------------------------------------------------------------

 ROUTINE             CALLS  TOT TIME [s]  AVE VOLUME [Bytes]  PERFORMANCE [MB/s]
 MP_Group                2         0.000
 MP_Bcast                6         0.001                 11.                0.12
 MP_Allreduce           81         0.000                 17.               33.30
 MP_Sync                 1         0.000
 MP_Alltoall            23         0.000               4024.             3495.73
 MP_Wait                24         0.000
 MP_ISend                8         0.000               1444.               30.12
 MP_IRecv                8         0.000               1444.             1185.55
 MP_Memory              40         0.000
 -------------------------------------------------------------------------------


 -------------------------------------------------------------------------------
 -                                                                             -
 -                           R E F E R E N C E S                               -
 -                                                                             -
 -------------------------------------------------------------------------------
 
 CP2K version 3.0, the CP2K developers group (2015).
 CP2K is freely available from https://www.cp2k.org/ .

 Borstnik, U; VandeVondele, J; Weber, V; Hutter, J. 
 PARALLEL COMPUTING, 40 (5-6), 47-58 (2014). 
 Sparse matrix multiplication: The distributed block-compressed sparse
 row library.
 http://dx.doi.org/10.1016/j.parco.2014.03.012


 Hutter, J; Iannuzzi, M; Schiffmann, F; VandeVondele, J. 
 WILEY INTERDISCIPLINARY REVIEWS-COMPUTATIONAL MOLECULAR SCIENCE, 4 (1), 15-25 (2014). 
 CP2K: atomistic simulations of condensed matter systems.
 http://dx.doi.org/10.1002/wcms.1159


 Grimme, S. 
 JOURNAL OF COMPUTATIONAL CHEMISTRY, 27 (15), 1787-1799 (2006). 
 Semiempirical GGA-type density functional constructed with a long-range
 dispersion correction.
 http://dx.doi.org/10.1002/jcc.20495


 Krack, M. 
 THEORETICAL CHEMISTRY ACCOUNTS, 114 (1-3), 145-152 (2005). 
 Pseudopotentials for H to Kr optimized for gradient-corrected
 exchange-correlation functionals.
 http://dx.doi.org/10.1007/s00214-005-0655-y


 VandeVondele, J; Krack, M; Mohamed, F; Parrinello, M; Chassaing, T;
 Hutter, J. COMPUTER PHYSICS COMMUNICATIONS, 167 (2), 103-128 (2005). 
 QUICKSTEP: Fast and accurate density functional calculations using a
 mixed Gaussian and plane waves approach.
 http://dx.doi.org/10.1016/j.cpc.2004.12.014


 Frigo, M; Johnson, SG. 
 PROCEEDINGS OF THE IEEE, 93 (2), 216-231 (2005). 
 The design and implementation of FFTW3.
 http://dx.doi.org/10.1109/JPROC.2004.840301


 Hartwigsen, C; Goedecker, S; Hutter, J. 
 PHYSICAL REVIEW B, 58 (7), 3641-3662 (1998). 
 Relativistic separable dual-space Gaussian pseudopotentials from H to Rn.
 http://dx.doi.org/10.1103/PhysRevB.58.3641


 Lippert, G; Hutter, J; Parrinello, M. 
 MOLECULAR PHYSICS, 92 (3), 477-487 (1997). 
 A hybrid Gaussian and plane wave density functional scheme.
 http://dx.doi.org/10.1080/002689797170220


 Perdew, JP; Burke, K; Ernzerhof, M. 
 PHYSICAL REVIEW LETTERS, 77 (18), 3865-3868 (1996). 
 Generalized gradient approximation made simple.
 http://dx.doi.org/10.1103/PhysRevLett.77.3865


 Goedecker, S; Teter, M; Hutter, J. 
 PHYSICAL REVIEW B, 54 (3), 1703-1710 (1996). 
 Separable dual-space Gaussian pseudopotentials.
 http://dx.doi.org/10.1103/PhysRevB.54.1703


 -------------------------------------------------------------------------------
 -                                                                             -
 -                                T I M I N G                                  -
 -                                                                             -
 -------------------------------------------------------------------------------
 SUBROUTINE                       CALLS  ASD         SELF TIME        TOTAL TIME
                                MAXIMUM       AVERAGE  MAXIMUM  AVERAGE  MAXIMUM
 CP2K                                 1  1.0    0.008    0.008    0.386    0.386
 qs_energies                          1  2.0    0.001    0.001    0.277    0.277
 scf_env_do_scf                       1  3.0    0.001    0.001    0.132    0.132
 scf_env_do_scf_inner_loop            1  4.0    0.000    0.000    0.132    0.132
 qs_rho_update_rho                    2  5.0    0.000    0.000    0.096    0.096
 calculate_rho_elec                   2  6.0    0.093    0.093    0.096    0.096
 init_scf_run                         1  3.0    0.000    0.000    0.086    0.086
 qs_ks_update_qs_env                  1  5.0    0.000    0.000    0.086    0.086
 rebuild_ks_matrix                    1  6.0    0.000    0.000    0.086    0.086
 qs_ks_build_kohn_sham_matrix         1  7.0    0.001    0.001    0.086    0.086
 scf_env_initial_rho_setup            1  4.0    0.001    0.001    0.078    0.078
 qs_init_subsys                       1  2.0    0.012    0.012    0.074    0.074
 qs_env_setup                         1  3.0    0.001    0.001    0.048    0.048
 qs_env_rebuild_pw_env                2  3.5    0.000    0.000    0.046    0.046
 pw_env_rebuild                       1  5.0    0.007    0.007    0.046    0.046
 sum_up_and_integrate                 1  8.0    0.000    0.000    0.043    0.043
 integrate_v_rspace                   1  9.0    0.041    0.041    0.043    0.043
 qs_energies_init_hamiltonians        1  3.0    0.002    0.002    0.042    0.042
 qs_vxc_create                        1  8.0    0.000    0.000    0.038    0.038
 xc_vxc_pw_create                     1  9.0    0.001    0.001    0.037    0.037
 pw_transfer                         14  9.4    0.000    0.000    0.036    0.036
 fft_wrap_pw1pw2                     12 10.5    0.000    0.000    0.035    0.035
 fft_wrap_pw1pw2_50                  12 11.5    0.002    0.002    0.035    0.035
 xc_rho_set_and_dset_create           1 10.0    0.003    0.003    0.029    0.029
 fft3d_s                             13 11.7    0.016    0.016    0.028    0.028
 pw_grid_setup                        1  6.0    0.000    0.000    0.028    0.028
 pw_grid_setup_internal               1  7.0    0.004    0.004    0.028    0.028
 create_qs_kind_set                   1  2.0    0.000    0.000    0.024    0.024
 read_qs_kind                         2  3.0    0.015    0.015    0.024    0.024
 qs_env_update_s_mstruct              1  4.0    0.001    0.001    0.024    0.024
 calculate_rho_core                   1  5.0    0.004    0.004    0.021    0.021
 calculate_first_density_matrix       1  5.0    0.000    0.000    0.020    0.020
 calculate_atomic_block_dm            1  6.0    0.003    0.003    0.020    0.020
 pw_grid_sort                         1  8.0    0.014    0.014    0.019    0.019
 xc_functional_eval                   1 11.0    0.000    0.000    0.019    0.019
 pbe_lda_eval                         1 12.0    0.019    0.019    0.019    0.019
 scf_post_calculation_gpw             1  3.0    0.000    0.000    0.016    0.016
 calculate_atom                       2  7.0    0.000    0.000    0.014    0.014
 calculate_atom_restricted            2  8.0    0.013    0.013    0.014    0.014
 write_available_results              1  4.0    0.000    0.000    0.013    0.013
 write_mo_free_results                1  5.0    0.002    0.002    0.013    0.013
 get_fft_scratch                     13 12.7    0.012    0.012    0.012    0.012
 build_core_hamiltonian_matrix        1  4.0    0.001    0.001    0.011    0.011
 parser_read_line                  4766  4.0    0.002    0.002    0.009    0.009
 build_overlap_matrix                 1  5.0    0.005    0.005    0.008    0.008
 -------------------------------------------------------------------------------

 The number of warnings for this run is : 2
 
 -------------------------------------------------------------------------------
  **** **** ******  **  PROGRAM ENDED AT                 2017-11-27 10:28:12.403
 ***** ** ***  *** **   PROGRAM RAN ON                                 lenovo700
 **    ****   ******    PROGRAM RAN BY                                     lauri
 ***** **    ** ** **   PROGRAM PROCESS ID                                  9143
  **** **  *******  **  PROGRAM STOPPED IN /home/lauri/Dropbox/nomad-dev/WP1/nom
                                           ad-lab-base/parsers/cp2k/regtests/cp2
                                           k_2.6.2/vdw/grimme_d2
