#     Step Nr.          Time[fs]        Kin.[a.u.]          Temp[K]            Pot.[a.u.]        Cons Qty[a.u.]        UsedTime[s]
         0            0.000000         0.742296547       831.200108575     -1081.198276296     -1080.332678824         0.000000000
         1            0.500000         0.742380283       831.293874038     -1081.201395021     -1080.332617481         8.508544353
         2            1.000000         0.751371825       841.362317642     -1081.214266267     -1080.332934392         3.709264840
         3            1.500000         0.764620254       856.197487035     -1081.231957241     -1080.333451203         3.535446607
         4            2.000000         0.774406158       867.155432658     -1081.246350866     -1080.333936055         3.509915338
         5            2.500000         0.773920475       866.611579411     -1081.250163146     -1080.334122917         3.555039290
         6            3.000000         0.760796708       851.916002199     -1081.240734962     -1080.333936292         3.189649779
         7            3.500000         0.738369815       826.803079436     -1081.221301672     -1080.333465689         3.761699606
         8            4.000000         0.714215996       799.756399346     -1081.199527874     -1080.332932823         2.767494488
         9            4.500000         0.696663572       780.101751976     -1081.183957625     -1080.332610732         3.616547990
        10            5.000000         0.690862291       773.605661803     -1081.179903800     -1080.332630131         3.244950738
        11            5.500000         0.696737581       780.184625671     -1081.187358420     -1080.332935444         3.175452772
        12            6.000000         0.709854651       794.872703496     -1081.201873777     -1080.333323976         3.868411183
        13            6.500000         0.724143662       810.873084789     -1081.217437622     -1080.333638694         2.817565570
        14            7.000000         0.734508989       822.479848897     -1081.229062485     -1080.333798228         3.142934384
        15            7.500000         0.738322705       826.750326801     -1081.234218197     -1080.333771856         3.167595306
        16            8.000000         0.735946160       824.089147022     -1081.233334754     -1080.333567765         3.156162920
        17            8.500000         0.730454047       817.939253382     -1081.229575978     -1080.333262764         2.802424285
        18            9.000000         0.726373179       813.369627562     -1081.227591529     -1080.332989439         3.157453894
        19            9.500000         0.727715544       814.872764592     -1081.231493430     -1080.332870807         3.176311558
        20           10.000000         0.736046321       824.201304111     -1081.242882914     -1080.332992337         3.578427549
        21           10.500000         0.749375224       839.126587319     -1081.259656606     -1080.333336713         3.195253257
        22           11.000000         0.762568163       853.899620723     -1081.276410455     -1080.333780670         3.116243108
        23           11.500000         0.769439354       861.593762784     -1081.286550313     -1080.334092097         3.137860373
        24           12.000000         0.765907255       857.638630890     -1081.285646729     -1080.334090094         2.717501268
        25           12.500000         0.752555359       842.687601649     -1081.274137161     -1080.333748025         3.236744803
        26           13.000000         0.734679021       822.670245835     -1081.257480472     -1080.333274106         3.850639979
        27           13.500000         0.719474222       805.644393918     -1081.243165462     -1080.332921497         3.633868275
        28           14.000000         0.712234899       797.538029936     -1081.236770958     -1080.332859087         2.751832122
        29           14.500000         0.713962176       799.472180359     -1081.239440188     -1080.333059660         3.671740556
        30           15.000000         0.721671180       808.104477725     -1081.248219663     -1080.333370179         3.220617334
        31           15.500000         0.730542600       818.038412421     -1081.258302256     -1080.333650219         3.219338342
        32           16.000000         0.736206613       824.380794136     -1081.265303644     -1080.333804149         2.700783386
        33           16.500000         0.736379751       824.574669212     -1081.266876168     -1080.333770735         3.091827723
        34           17.000000         0.731568569       819.187260045     -1081.263496205     -1080.333584033         3.085560267
        35           17.500000         0.724596043       811.379647076     -1081.257996540     -1080.333334420         3.522077237
        36           18.000000         0.719256847       805.400984234     -1081.254216167     -1080.333121419         3.134948454
        37           18.500000         0.718574030       804.636387603     -1081.255282674     -1080.333063830         3.111574073
        38           19.000000         0.723356307       809.991429612     -1081.262029916     -1080.333176327         3.536068518
        39           19.500000         0.731601516       819.224153016     -1081.272471915     -1080.333471131         3.543482711
        40           20.000000         0.738961568       827.465705362     -1081.282092890     -1080.333805337         3.104878019
        41           20.500000         0.740570104       829.266893183     -1081.285811046     -1080.334016451         2.809533976
        42           21.000000         0.733561126       821.418461637     -1081.280571332     -1080.333975387         3.128452972
        43           21.500000         0.718663599       804.736684081     -1081.267097480     -1080.333716404         2.770467231
        44           22.000000         0.699870212       783.692446218     -1081.249511396     -1080.333368755         3.532471062
        45           22.500000         0.682316499       764.036355815     -1081.233194835     -1080.333135772         3.639208829
        46           23.000000         0.669629899       749.830303430     -1081.221921104     -1080.333090561         3.135258451
        47           23.500000         0.662593960       741.951682545     -1081.216526295     -1080.333208515         3.243187059
        48           24.000000         0.659554327       738.547997645     -1081.215306689     -1080.333388871         3.177197747
        49           24.500000         0.657791847       736.574428953     -1081.215466466     -1080.333553796         3.182398550
        50           25.000000         0.654844580       733.274172740     -1081.214432935     -1080.333648020         3.220290286
        51           25.500000         0.649404068       727.182060266     -1081.210767033     -1080.333634829         3.097906147
        52           26.000000         0.641753461       718.615153544     -1081.204677998     -1080.333534748         2.706151363
        53           26.500000         0.633548784       709.427816098     -1081.197797855     -1080.333377086         3.117739824
        54           27.000000         0.627190113       702.307578701     -1081.192594881     -1080.333218055         3.104030940
        55           27.500000         0.624884227       699.725520545     -1081.191432480     -1080.333144312         3.129853115
        56           28.000000         0.627583561       702.748148589     -1081.195391140     -1080.333189782         3.376219031
        57           28.500000         0.634393503       710.373705653     -1081.203666696     -1080.333368324         3.161030565
        58           29.000000         0.642563607       719.522329332     -1081.213486013     -1080.333626698         3.135446953
        59           29.500000         0.648348512       726.000081685     -1081.220948587     -1080.333828110         3.229191794
        60           30.000000         0.648745718       726.444860449     -1081.222922052     -1080.333889520         2.736870132
        61           30.500000         0.643184307       720.217369060     -1081.218703666     -1080.333724946         3.087595900
        62           31.000000         0.634131689       710.080534333     -1081.210840884     -1080.333436870         3.221476276
        63           31.500000         0.625827115       700.781336628     -1081.203753044     -1080.333197040         3.289415137
        64           32.000000         0.621820643       696.295016119     -1081.201147757     -1080.333131856         3.124140662
        65           32.500000         0.623112461       697.741553253     -1081.204068575     -1080.333249237         2.729294809
        66           33.000000         0.628030335       703.248432658     -1081.210766288     -1080.333453518         2.718388622
        67           33.500000         0.633521372       709.397121514     -1081.218068136     -1080.333637133         2.940600390
        68           34.000000         0.636808606       713.078061380     -1081.223077657     -1080.333723419         3.151807178
        69           34.500000         0.636497811       712.730043510     -1081.224336004     -1080.333703572         3.074290672
        70           35.000000         0.633000688       708.814075397     -1081.222202277     -1080.333565636         2.720741102
        71           35.500000         0.628279337       703.527257196     -1081.218718781     -1080.333391179         3.385009345
        72           36.000000         0.624909427       699.753738837     -1081.216570352     -1080.333246539         3.227503266
        73           36.500000         0.624969683       699.821211231     -1081.217966459     -1080.333194223         3.586953283
        74           37.000000         0.629181538       704.537512690     -1081.223709449     -1080.333254618         3.244654811
        75           37.500000         0.636565406       712.805733341     -1081.232837077     -1080.333421392         3.133698115
        76           38.000000         0.644635380       721.842234000     -1081.242784882     -1080.333638375         3.287042430
        77           38.500000         0.650241063       728.119300329     -1081.250253432     -1080.333810189         3.231242309
        78           39.000000         0.651014591       728.985472814     -1081.252718819     -1080.333836754         2.927820922
        79           39.500000         0.646757921       724.218988390     -1081.249929388     -1080.333696093         3.152245686
        80           40.000000         0.639671075       716.283363474     -1081.244178592     -1080.333476495         3.050598448
        81           40.500000         0.633086334       708.909979317     -1081.238965583     -1080.333307415         3.135166874
        82           41.000000         0.629594663       705.000117554     -1081.237025926     -1080.333281252         3.114971487
        83           41.500000         0.629785323       705.213611708     -1081.238970702     -1080.333376252         3.111015290
        84           42.000000         0.632352075       708.087779842     -1081.243441389     -1080.333525486         3.117562744
        85           42.500000         0.635138810       711.208276928     -1081.248183313     -1080.333653525         3.074537827
        86           43.000000         0.636303452       712.512406226     -1081.251242346     -1080.333701890         3.116371764
        87           43.500000         0.635065902       711.126636894     -1081.251777979     -1080.333672717         3.122175477
        88           44.000000         0.631812390       707.483457226     -1081.250155691     -1080.333590251         3.085612412
        89           44.500000         0.627718006       702.898695854     -1081.247582468     -1080.333494974         3.122180351
        90           45.000000         0.624190987       698.949252033     -1081.245523879     -1080.333415145         2.825640340
        91           45.500000         0.622401982       696.945981247     -1081.245219155     -1080.333368926         3.190756204
        92           46.000000         0.622999663       697.615245587     -1081.247375496     -1080.333367066         3.621996527
        93           46.500000         0.625931496       700.898219540     -1081.251978972     -1080.333421391         3.492939647
        94           47.000000         0.630281558       705.769280214     -1081.258121753     -1080.333538041         2.714050365
        95           47.500000         0.634340490       710.314343750     -1081.264035638     -1080.333670278         3.142640597
        96           48.000000         0.636282508       712.488953336     -1081.267806363     -1080.333738375         3.193434882
        97           48.500000         0.635270575       711.355822975     -1081.268552362     -1080.333689845         3.240287045
        98           49.000000         0.632160697       707.873480210     -1081.267178400     -1080.333547068         3.143957940
        99           49.500000         0.629166452       704.520619909     -1081.266012534     -1080.333390132         2.708176842
       100           50.000000         0.628591534       703.876844682     -1081.267492980     -1080.333328429         3.102909853
       101           50.500000         0.631489097       707.121443848     -1081.272689275     -1080.333379715         3.417577229
       102           51.000000         0.637202896       713.519575168     -1081.280873796     -1080.333511163         3.162398340
       103           51.500000         0.643828805       720.939057061     -1081.290008340     -1080.333662985         3.207820815
       104           52.000000         0.649267033       727.028612237     -1081.297814506     -1080.333749790         2.703055310
       105           52.500000         0.652259482       730.379462124     -1081.302929245     -1080.333750241         3.219726763
       106           53.000000         0.652757167       730.936754132     -1081.305278317     -1080.333684844         3.070932298
       107           53.500000         0.651516585       729.547589882     -1081.305697606     -1080.333625934         3.657420802
       108           54.000000         0.649387573       727.163589935     -1081.305096160     -1080.333576980         2.725177593
       109           54.500000         0.647096944       724.598615405     -1081.304268737     -1080.333523177         3.187414871
       110           55.000000         0.645291126       722.576517857     -1081.303972641     -1080.333494305         3.270846396
       111           55.500000         0.644358697       721.532413251     -1081.304663433     -1080.333498642         3.538749569
       112           56.000000         0.644046696       721.183045036     -1081.306167264     -1080.333585496         3.274955307
       113           56.500000         0.643159119       720.189164248     -1081.307237447     -1080.333696597         3.156013898
       114           57.000000         0.640250211       716.931861749     -1081.306319332     -1080.333724154         3.112726130
       115           57.500000         0.634950047       710.996905929     -1081.303023120     -1080.333647264         3.123039642
       116           58.000000         0.628482009       703.754202875     -1081.298612006     -1080.333500436         3.039513947
       117           58.500000         0.623026112       697.644862285     -1081.295362517     -1080.333378034         2.742317038
       118           59.000000         0.620484545       694.798896294     -1081.295223938     -1080.333340918         3.183428541
       119           59.500000         0.621528384       695.967753934     -1081.298839009     -1080.333401361         3.189139505
       120           60.000000         0.625461656       700.372106634     -1081.305388997     -1080.333506842         3.246103167
       121           60.500000         0.630682308       706.218027934     -1081.313158564     -1080.333634907         2.738681812
       122           61.000000         0.635379490       711.477782807     -1081.320183789     -1080.333722617         3.252759741
       123           61.500000         0.638229503       714.669137057     -1081.325059715     -1080.333751474         3.242248948
       124           62.000000         0.638747840       715.249554191     -1081.327297159     -1080.333730883         3.526748667
       125           62.500000         0.637226680       713.546207852     -1081.327237006     -1080.333667894         2.758502851
       126           63.000000         0.634479547       710.470055509     -1081.325812049     -1080.333597088         3.241382024
       127           63.500000         0.631486386       707.118408681     -1081.324127285     -1080.333542722         3.142217299
       128           64.000000         0.629139972       704.490968636     -1081.323155120     -1080.333496149         2.892194753
       129           64.500000         0.628052935       703.273739608     -1081.323605733     -1080.333498487         3.723392405
       130           65.000000         0.628138440       703.369484763     -1081.325435358     -1080.333571678         3.120065610
       131           65.500000         0.628361753       703.619543513     -1081.327577789     -1080.333688174         2.865211236
       132           66.000000         0.627196639       702.314885799     -1081.328411632     -1080.333766150         3.546002621
       133           66.500000         0.623616328       698.305767218     -1081.326847811     -1080.333753984         3.314959021
       134           67.000000         0.617877497       691.879606214     -1081.323142277     -1080.333656180         3.194613726
       135           67.500000         0.611452284       684.684857122     -1081.318822722     -1080.333534493         2.784757696
       136           68.000000         0.606194078       678.796884518     -1081.315785793     -1080.333449930         3.179918887
       137           68.500000         0.603486023       675.764491352     -1081.315400818     -1080.333425648         3.305991391
       138           69.000000         0.603780901       676.094685899     -1081.318068891     -1080.333466187         3.147764965
       139           69.500000         0.606557665       679.204018326     -1081.323179396     -1080.333548406         2.892303404
       140           70.000000         0.610652378       683.789147787     -1081.329469926     -1080.333634360         3.250551350
       141           70.500000         0.614706645       688.328987388     -1081.335524864     -1080.333704789         3.196455272
       142           71.000000         0.617509794       691.467864912     -1081.340119257     -1080.333749720         3.197248907
       143           71.500000         0.618293116       692.345003928     -1081.342497131     -1080.333750178         2.839129820
       144           72.000000         0.616965017       690.857839918     -1081.342626208     -1080.333706224         3.300585723
       145           72.500000         0.614103498       687.653601882     -1081.341171392     -1080.333634929         3.159906620
       146           73.000000         0.610735052       683.881723840     -1081.339243610     -1080.333558971         3.593819243
       147           73.500000         0.607909983       680.718300772     -1081.337980263     -1080.333524620         3.325684759
       148           74.000000         0.606079437       678.668513804     -1081.337887712     -1080.333569669         3.219436278
       149           74.500000         0.604697367       677.120915187     -1081.338388082     -1080.333661275         3.343219463
       150           75.000000         0.602631006       674.807070470     -1081.338261333     -1080.333716630         3.215547444
       151           75.500000         0.599198019       670.962920393     -1081.336779979     -1080.333692494         3.687302333
       152           76.000000         0.594774715       666.009844403     -1081.334353195     -1080.333620689         3.182091964
       153           76.500000         0.590462390       661.181040507     -1081.332131719     -1080.333554164         3.228811203
       154           77.000000         0.587358929       657.705883247     -1081.331221907     -1080.333520352         3.041083407
       155           77.500000         0.586102886       656.299405624     -1081.332223263     -1080.333521322         3.186453976
       156           78.000000         0.586929542       657.225069291     -1081.335273604     -1080.333519398         4.129722959
       157           78.500000         0.589875475       660.523831645     -1081.340362962     -1080.333532624         3.838807042
       158           79.000000         0.594686754       665.911348714     -1081.347205914     -1080.333580264         3.173614984
       159           79.500000         0.600570599       672.499892005     -1081.354992720     -1080.333667087         2.951560613
       160           80.000000         0.606177162       678.777942596     -1081.362364435     -1080.333771062         3.208000321
       161           80.500000         0.610058741       683.124411523     -1081.367846077     -1080.333822332         3.224529091
       162           81.000000         0.611493319       684.730806665     -1081.370742219     -1080.333787954         3.222176849
       163           81.500000         0.610938775       684.109846088     -1081.371601380     -1080.333697892         3.346141039
       164           82.000000         0.609632692       682.647335575     -1081.371776117     -1080.333618941         3.322084172
       165           82.500000         0.608742019       681.649988444     -1081.372507208     -1080.333596917         3.737050455
       166           83.000000         0.608598078       681.488807725     -1081.374155070     -1080.333652905         3.304713016
       167           83.500000         0.608508299       681.388275691     -1081.375975133     -1080.333739652         3.319802563
       168           84.000000         0.607355359       680.097250176     -1081.376770343     -1080.333785331         2.879061185
       169           84.500000         0.604514847       676.916535307     -1081.375885005     -1080.333763910         3.327446861
       170           85.000000         0.600297405       672.193977650     -1081.373652620     -1080.333702569         3.689200996
       171           85.500000         0.595634376       666.972465323     -1081.371038902     -1080.333646905         3.368859767
       172           86.000000         0.591463113       662.301618409     -1081.368976941     -1080.333619087         3.248538014
       173           86.500000         0.588405068       658.877316686     -1081.368022640     -1080.333597342         3.250208945
       174           87.000000         0.586863991       657.151667402     -1081.368523522     -1080.333579087         2.958434718
       175           87.500000         0.587167372       657.491383059     -1081.370754783     -1080.333560037         3.194427795
       176           88.000000         0.589497617       660.100718443     -1081.374901839     -1080.333568314         3.381400888
       177           88.500000         0.593585592       664.678302065     -1081.380719058     -1080.333619553         3.321312953
       178           89.000000         0.598499168       670.180368961     -1081.387301432     -1080.333702192         3.232630119
       179           89.500000         0.602910323       675.119840297     -1081.393330315     -1080.333769312         2.863557738
       180           90.000000         0.605727212       678.274103241     -1081.397730735     -1080.333781628         3.245300674
       181           90.500000         0.606641135       679.297484731     -1081.400240318     -1080.333744801         3.358931219
       182           91.000000         0.606173814       678.774193980     -1081.401417054     -1080.333677976         3.340656252
       183           91.500000         0.605266115       677.757781614     -1081.402243943     -1080.333628845         2.805090086
       184           92.000000         0.604633196       677.049059242     -1081.403456110     -1080.333636865         3.505775628
       185           92.500000         0.604238099       676.606641595     -1081.404991755     -1080.333697888         3.256019828
       186           93.000000         0.603409257       675.678530434     -1081.406112284     -1080.333756176         3.314264487
       187           93.500000         0.601513699       673.555944709     -1081.406141799     -1080.333767164         2.842935361
       188           94.000000         0.598506034       670.188056797     -1081.405049365     -1080.333735830         3.254029922
       189           94.500000         0.594878826       666.126424491     -1081.403375302     -1080.333703574         3.354812127
       190           95.000000         0.591118473       661.915701390     -1081.401631934     -1080.333704269         3.379814220
       191           95.500000         0.587318844       657.660997447     -1081.399865522     -1080.333717623         2.826355420
       192           96.000000         0.583408087       653.281855508     -1081.402789533     -1080.338573084         2.617680783
       193           96.500000         0.579660889       649.085861605     -1081.400878361     -1080.338511370         2.994896709
       194           97.000000         0.576865393       645.955554274     -1081.399822149     -1080.338453037         3.794111324
       195           97.500000         0.575738269       644.693437037     -1081.400411724     -1080.338463511         3.960292894
       196           98.000000         0.576060173       645.053894932     -1081.402462061     -1080.338541916         2.893288298
       197           98.500000         0.576636115       645.698815885     -1081.404763952     -1080.338627965         3.099856882
       198           99.000000         0.576186890       645.195788632     -1081.406000376     -1080.338645491         3.050606690
       199           99.500000         0.574396788       643.191288521     -1081.405863718     -1080.338584197         3.012740238
       200          100.000000         0.572084488       640.602048830     -1081.405233927     -1080.338508771         2.717144974
       201          100.500000         0.570350630       638.660529277     -1081.405251722     -1080.338477521         3.099483654
       202          101.000000         0.569684271       637.914361754     -1081.406405215     -1080.338510675         2.970465080
       203          101.500000         0.569722225       637.956861776     -1081.408278007     -1080.338566998         3.059672524
       204          102.000000         0.569701944       637.934152096     -1081.410073415     -1080.338607731         2.669364437
       205          102.500000         0.569088784       637.247554843     -1081.411252294     -1080.338608358         3.536218684
       206          103.000000         0.567846773       635.856789696     -1081.411829820     -1080.338594569         3.096118547
       207          103.500000         0.566245072       634.063255718     -1081.412114160     -1080.338588940         3.549098999
       208          104.000000         0.564403962       632.001640119     -1081.412245038     -1080.338615969         2.636218616
       209          104.500000         0.562155765       629.484179797     -1081.411985048     -1080.338636555         2.935422401
       210          105.000000         0.559509089       626.520516520     -1081.411242603     -1080.338598414         2.607634526
       211          105.500000         0.557145741       623.874114295     -1081.410675077     -1080.338524270         2.962650540
       212          106.000000         0.556227369       622.845750087     -1081.411465601     -1080.338462743         3.101064493
       213          106.500000         0.557544758       624.320920894     -1081.414472621     -1080.338478079         3.000251846
       214          107.000000         0.560799982       627.966017315     -1081.419419376     -1080.338561046         2.899019635
       215          107.500000         0.564715993       632.351041881     -1081.425012389     -1080.338652197         3.112267130
       216          108.000000         0.567974437       635.999743719     -1081.429893862     -1080.338672581         3.007985617
       217          108.500000         0.570185653       638.475794097     -1081.433703996     -1080.338626775         2.973947378
       218          109.000000         0.571914826       640.412067004     -1081.437080076     -1080.338578751         2.650842546
       219          109.500000         0.573885089       642.618305152     -1081.440777928     -1080.338566271         2.977366687
       220          110.000000         0.576336887       645.363750129     -1081.445029912     -1080.338591525         3.018476358
       221          110.500000         0.578945514       648.284807413     -1081.449487749     -1080.338637581         3.188422983
       222          111.000000         0.581118328       650.717856277     -1081.453529533     -1080.338672423         2.624847580
       223          111.500000         0.582473336       652.235151420     -1081.456751755     -1080.338663002         3.067152455
       224          112.000000         0.583136168       652.977369143     -1081.459320324     -1080.338636408         2.989539024
       225          112.500000         0.583461710       653.341901296     -1081.461641882     -1080.338640183         3.149353657
       226          113.000000         0.583502589       653.387676416     -1081.463761010     -1080.338680233         2.605370061
       227          113.500000         0.582886079       652.697327762     -1081.465237558     -1080.338723580         3.001209748