#     Step Nr.          Time[fs]        Kin.[a.u.]          Temp[K]            Pot.[a.u.]        Cons Qty[a.u.]        UsedTime[s]
         0            0.000000         0.007125335       300.000000000       -34.336403530       -34.324047996         0.000000000
         1            0.500000         0.007358038       309.797597156       -34.336638312       -34.324054403         1.972006205
         2            1.000000         0.007414878       312.190722217       -34.336698674       -34.324056733         0.606219402
         3            1.500000         0.007245416       305.055835462       -34.336539787       -34.324059082         0.961466920
         4            2.000000         0.006832946       287.689475065       -34.336141815       -34.324057040         0.950284295
         5            2.500000         0.006241331       262.780549510       -34.335562912       -34.324043992         0.942355444
         6            3.000000         0.005685824       239.391887130       -34.335021181       -34.324022684         0.560770646
         7            3.500000         0.005480859       230.762197167       -34.334844452       -34.324007616         0.823932849
         8            4.000000         0.005835031       245.673981276       -34.335254239       -34.324014235         0.818104614
         9            4.500000         0.006642601       279.675336061       -34.336142063       -34.324043595         0.821988390
        10            5.000000         0.007478540       314.871094721       -34.337060810       -34.324078054         0.911705150
