 DBCSR| Multiplication driver                                                SMM
 DBCSR| Multrec recursion limit                                              512
 DBCSR| Multiplication stack size                                           1000
 DBCSR| Multiplication size stacks                                             3
 DBCSR| Use subcommunicators                                                   T
 DBCSR| Use MPI combined types                                                 F
 DBCSR| Use MPI memory allocation                                              T
 DBCSR| Use Communication thread                                               T
 DBCSR| Communication thread load                                             87


  **** **** ******  **  PROGRAM STARTED AT               2016-06-13 12:07:22.388
 ***** ** ***  *** **   PROGRAM STARTED ON                             lenovo700
 **    ****   ******    PROGRAM STARTED BY                                 lauri
 ***** **    ** ** **   PROGRAM PROCESS ID                                 30558
  **** **  *******  **  PROGRAM STARTED IN /home/lauri/Dropbox/nomad-dev/nomad-l
                                           ab-base/parsers/cp2k/test/unittests/c
                                           p2k_2.6.2/md/npt

 CP2K| version string:                                        CP2K version 2.6.2
 CP2K| source code revision number:                                    svn:15893
 CP2K| is freely available from                             http://www.cp2k.org/
 CP2K| Program compiled at                           ma 13.6.2016 11.25.35 +0300
 CP2K| Program compiled on                                             lenovo700
 CP2K| Program compiled for                          Linux-x86-64-gfortran_basic
 CP2K| Input file name                                                H2O-md.inp

 GLOBAL| Force Environment number                                              1
 GLOBAL| Basis set file name                                     ../../BASIS_SET
 GLOBAL| Geminal file name                                         BASIS_GEMINAL
 GLOBAL| Potential file name                                ../../GTH_POTENTIALS
 GLOBAL| MM Potential file name                                     MM_POTENTIAL
 GLOBAL| Coordinate file name                                      __STD_INPUT__
 GLOBAL| Method name                                                        CP2K
 GLOBAL| Project name                                                     H2O-md
 GLOBAL| Preferred FFT library                                             FFTW3
 GLOBAL| Preferred diagonalization lib.                                       SL
 GLOBAL| Run type                                                             MD
 GLOBAL| All-to-all communication in single precision                          F
 GLOBAL| FFTs using library dependent lengths                                  F
 GLOBAL| Global print level                                               MEDIUM
 GLOBAL| Total number of message passing processes                             1
 GLOBAL| Number of threads for this process                                    1
 GLOBAL| This output is from process                                           0

 MEMORY| system memory details [Kb]
 MEMORY|                        rank 0           min           max       average
 MEMORY| MemTotal              7962024       7962024       7962024       7962024
 MEMORY| MemFree                764588        764588        764588        764588
 MEMORY| Buffers                532128        532128        532128        532128
 MEMORY| Cached                3585416       3585416       3585416       3585416
 MEMORY| Slab                   350512        350512        350512        350512
 MEMORY| SReclaimable           299476        299476        299476        299476
 MEMORY| MemLikelyFree         5181608       5181608       5181608       5181608


 *** Fundamental physical constants (SI units) ***

 *** Literature: B. J. Mohr and B. N. Taylor,
 ***             CODATA recommended values of the fundamental physical
 ***             constants: 2006, Web Version 5.1
 ***             http://physics.nist.gov/constants

 Speed of light in vacuum [m/s]                             2.99792458000000E+08
 Magnetic constant or permeability of vacuum [N/A**2]       1.25663706143592E-06
 Electric constant or permittivity of vacuum [F/m]          8.85418781762039E-12
 Planck constant (h) [J*s]                                  6.62606896000000E-34
 Planck constant (h-bar) [J*s]                              1.05457162825177E-34
 Elementary charge [C]                                      1.60217648700000E-19
 Electron mass [kg]                                         9.10938215000000E-31
 Electron g factor [ ]                                     -2.00231930436220E+00
 Proton mass [kg]                                           1.67262163700000E-27
 Fine-structure constant                                    7.29735253760000E-03
 Rydberg constant [1/m]                                     1.09737315685270E+07
 Avogadro constant [1/mol]                                  6.02214179000000E+23
 Boltzmann constant [J/K]                                   1.38065040000000E-23
 Atomic mass unit [kg]                                      1.66053878200000E-27
 Bohr radius [m]                                            5.29177208590000E-11

 *** Conversion factors ***

 [u] -> [a.u.]                                              1.82288848426455E+03
 [Angstrom] -> [Bohr] = [a.u.]                              1.88972613288564E+00
 [a.u.] = [Bohr] -> [Angstrom]                              5.29177208590000E-01
 [a.u.] -> [s]                                              2.41888432650478E-17
 [a.u.] -> [fs]                                             2.41888432650478E-02
 [a.u.] -> [J]                                              4.35974393937059E-18
 [a.u.] -> [N]                                              8.23872205491840E-08
 [a.u.] -> [K]                                              3.15774647902944E+05
 [a.u.] -> [kJ/mol]                                         2.62549961709828E+03
 [a.u.] -> [kcal/mol]                                       6.27509468713739E+02
 [a.u.] -> [Pa]                                             2.94210107994716E+13
 [a.u.] -> [bar]                                            2.94210107994716E+08
 [a.u.] -> [atm]                                            2.90362800883016E+08
 [a.u.] -> [eV]                                             2.72113838565563E+01
 [a.u.] -> [Hz]                                             6.57968392072181E+15
 [a.u.] -> [1/cm] (wave numbers)                            2.19474631370540E+05
 [a.u./Bohr**2] -> [1/cm]                                   5.14048714338585E+03
 

 CELL_TOP| Volume [angstrom^3]:                                          216.000
 CELL_TOP| Vector a [angstrom     6.000     0.000     0.000    |a| =       6.000
 CELL_TOP| Vector b [angstrom     0.000     6.000     0.000    |b| =       6.000
 CELL_TOP| Vector c [angstrom     0.000     0.000     6.000    |c| =       6.000
 CELL_TOP| Angle (b,c), alpha [degree]:                                   90.000
 CELL_TOP| Angle (a,c), beta  [degree]:                                   90.000
 CELL_TOP| Angle (a,b), gamma [degree]:                                   90.000
 CELL_TOP| Numerically orthorhombic:                                         YES

 GENERATE|  Preliminary Number of Bonds generated:                             0
 GENERATE|  Achieved consistency in connectivity generation.

 CELL| Volume [angstrom^3]:                                              216.000
 CELL| Vector a [angstrom]:       6.000     0.000     0.000    |a| =       6.000
 CELL| Vector b [angstrom]:       0.000     6.000     0.000    |b| =       6.000
 CELL| Vector c [angstrom]:       0.000     0.000     6.000    |c| =       6.000
 CELL| Angle (b,c), alpha [degree]:                                       90.000
 CELL| Angle (a,c), beta  [degree]:                                       90.000
 CELL| Angle (a,b), gamma [degree]:                                       90.000
 CELL| Numerically orthorhombic:                                             YES

 CELL_REF| Volume [angstrom^3]:                                          216.000
 CELL_REF| Vector a [angstrom     6.000     0.000     0.000    |a| =       6.000
 CELL_REF| Vector b [angstrom     0.000     6.000     0.000    |b| =       6.000
 CELL_REF| Vector c [angstrom     0.000     0.000     6.000    |c| =       6.000
 CELL_REF| Angle (b,c), alpha [degree]:                                   90.000
 CELL_REF| Angle (a,c), beta  [degree]:                                   90.000
 CELL_REF| Angle (a,b), gamma [degree]:                                   90.000
 CELL_REF| Numerically orthorhombic:                                         YES

 *******************************************************************************
 *******************************************************************************
 **                                                                           **
 **     #####                         ##              ##                      **
 **    ##   ##            ##          ##              ##                      **
 **   ##     ##                       ##            ######                    **
 **   ##     ##  ##   ##  ##   #####  ##  ##   ####   ##    #####    #####    **
 **   ##     ##  ##   ##  ##  ##      ## ##   ##      ##   ##   ##  ##   ##   **
 **   ##  ## ##  ##   ##  ##  ##      ####     ###    ##   ######   ######    **
 **    ##  ###   ##   ##  ##  ##      ## ##      ##   ##   ##       ##        **
 **     #######   #####   ##   #####  ##  ##  ####    ##    #####   ##        **
 **           ##                                                    ##        **
 **                                                                           **
 **                                                ... make the atoms dance   **
 **                                                                           **
 **            Copyright (C) by CP2K Developers Group (2000 - 2014)           **
 **                                                                           **
 *******************************************************************************

 DFT| Spin restricted Kohn-Sham (RKS) calculation                            RKS
 DFT| Multiplicity                                                             1
 DFT| Number of spin states                                                    1
 DFT| Charge                                                                   0
 DFT| Self-interaction correction (SIC)                                       NO
 DFT| Cutoffs: density                                              1.000000E-10
 DFT|          gradient                                             1.000000E-10
 DFT|          tau                                                  1.000000E-10
 DFT|          cutoff_smoothing_range                               0.000000E+00
 DFT| XC density smoothing                                                  NONE
 DFT| XC derivatives                                                          PW
 FUNCTIONAL| ROUTINE=NEW
 FUNCTIONAL| PADE:
 FUNCTIONAL| S. Goedecker, M. Teter and J. Hutter, Phys. Rev. B 54, 1703 (1996)

 QS| Method:                                                                 GPW
 QS| Density plane wave grid type                        NON-SPHERICAL FULLSPACE
 QS| Number of grid levels:                                                    4
 QS| Density cutoff [a.u.]:                                                100.0
 QS| Multi grid cutoff [a.u.]: 1) grid level                               100.0
 QS|                           2) grid level                                33.3
 QS|                           3) grid level                                11.1
 QS|                           4) grid level                                 3.7
 QS| Grid level progression factor:                                          3.0
 QS| Relative density cutoff [a.u.]:                                        10.0
 QS| Consistent realspace mapping and integration 
 QS| Interaction thresholds: eps_pgf_orb:                                1.0E-06
 QS|                         eps_filter_matrix:                          0.0E+00
 QS|                         eps_core_charge:                            1.0E-14
 QS|                         eps_rho_gspace:                             1.0E-12
 QS|                         eps_rho_rspace:                             1.0E-12
 QS|                         eps_gvg_rspace:                             1.0E-06
 QS|                         eps_ppl:                                    1.0E-02
 QS|                         eps_ppnl:                                   1.0E-08


 ATOMIC KIND INFORMATION

  1. Atomic kind: O                                     Number of atoms:       2

     Orbital Basis Set                                             DZVP-GTH-PADE

       Number of orbital shell sets:                                           2
       Number of orbital shells:                                               5
       Number of primitive Cartesian functions:                                5
       Number of Cartesian basis functions:                                   14
       Number of spherical basis functions:                                   13
       Norm type:                                                              2

       Normalised Cartesian orbitals:

                        Set   Shell   Orbital            Exponent    Coefficient

                          1       1    2s                8.304404       0.526521
                                                         2.457945      -0.055011
                                                         0.759736      -0.404341
                                                         0.213639      -0.086026

                          1       2    3s                8.304404       0.000000
                                                         2.457945       0.000000
                                                         0.759736       0.000000
                                                         0.213639       0.223960

                          1       3    3px               8.304404      -2.000758
                                                         2.457945      -1.321077
                                                         0.759736      -0.480331
                                                         0.213639      -0.078647
                          1       3    3py               8.304404      -2.000758
                                                         2.457945      -1.321077
                                                         0.759736      -0.480331
                                                         0.213639      -0.078647
                          1       3    3pz               8.304404      -2.000758
                                                         2.457945      -1.321077
                                                         0.759736      -0.480331
                                                         0.213639      -0.078647

                          1       4    4px               8.304404       0.000000
                                                         2.457945       0.000000
                                                         0.759736       0.000000
                                                         0.213639       0.207033
                          1       4    4py               8.304404       0.000000
                                                         2.457945       0.000000
                                                         0.759736       0.000000
                                                         0.213639       0.207033
                          1       4    4pz               8.304404       0.000000
                                                         2.457945       0.000000
                                                         0.759736       0.000000
                                                         0.213639       0.207033

                          2       1    3dx2              0.800000       1.113825
                          2       1    3dxy              0.800000       1.929201
                          2       1    3dxz              0.800000       1.929201
                          2       1    3dy2              0.800000       1.113825
                          2       1    3dyz              0.800000       1.929201
                          2       1    3dz2              0.800000       1.113825

     Potential information for                                       GTH-PADE-q6

       Description:                       Goedecker-Teter-Hutter pseudopotential
                                           Goedecker et al., PRB 54, 1703 (1996)
                                          Hartwigsen et al., PRB 58, 3641 (1998)
                                                      Krack, TCA 114, 145 (2005)

       Gaussian exponent of the core charge distribution:               8.154466
       Electronic configuration (s p d ...):                               2   4

       Parameters of the local part of the GTH pseudopotential:

                          rloc        C1          C2          C3          C4
                        0.247621  -16.580318    2.395701

       Parameters of the non-local part of the GTH pseudopotential:

                   l      r(l)      h(i,j,l)

                   0    0.221786   18.266917
                   1    0.256829

  2. Atomic kind: H                                     Number of atoms:       4

     Orbital Basis Set                                             DZVP-GTH-PADE

       Number of orbital shell sets:                                           2
       Number of orbital shells:                                               3
       Number of primitive Cartesian functions:                                5
       Number of Cartesian basis functions:                                    5
       Number of spherical basis functions:                                    5
       Norm type:                                                              2

       Normalised Cartesian orbitals:

                        Set   Shell   Orbital            Exponent    Coefficient

                          1       1    1s                8.374435      -0.083834
                                                         1.805868      -0.155208
                                                         0.485253      -0.104875
                                                         0.165824      -0.128813

                          1       2    2s                8.374435       0.000000
                                                         1.805868       0.000000
                                                         0.485253       0.000000
                                                         0.165824       0.185202

                          2       1    2px               0.700000       0.912668
                          2       1    2py               0.700000       0.912668
                          2       1    2pz               0.700000       0.912668

     Potential information for                                       GTH-PADE-q1

       Description:                       Goedecker-Teter-Hutter pseudopotential
                                           Goedecker et al., PRB 54, 1703 (1996)
                                          Hartwigsen et al., PRB 58, 3641 (1998)
                                                      Krack, TCA 114, 145 (2005)

       Gaussian exponent of the core charge distribution:              12.500000
       Electronic configuration (s p d ...):                                   1

       Parameters of the local part of the GTH pseudopotential:

                          rloc        C1          C2          C3          C4
                        0.200000   -4.180237    0.725075


 MOLECULE KIND INFORMATION


 All atoms are their own molecule, skipping detailed information


 TOTAL NUMBERS AND MAXIMUM NUMBERS

  Total number of            - Atomic kinds:                                   2
                             - Atoms:                                          6
                             - Shell sets:                                    12
                             - Shells:                                        22
                             - Primitive Cartesian functions:                 30
                             - Cartesian basis functions:                     48
                             - Spherical basis functions:                     46

  Maximum angular momentum of- Orbital basis functions:                        2
                             - Local part of the GTH pseudopotential:          2
                             - Non-local part of the GTH pseudopotential:      0


 MODULE QUICKSTEP:  ATOMIC COORDINATES IN angstrom

  Atom  Kind  Element       X           Y           Z          Z(eff)       Mass

       1     1 O    8   -4.583298    5.333952    1.560053      6.00      15.9994
       2     1 O    8   -4.583298    8.333952    1.560053      6.00      15.9994
       3     2 H    1   -3.777666    5.331556    0.943199      1.00       1.0079
       4     2 H    1   -5.081560    4.589890    1.176941      1.00       1.0079
       5     2 H    1   -3.777666    8.331556    0.943199      1.00       1.0079
       6     2 H    1   -5.081560    7.589890    1.176941      1.00       1.0079




 SCF PARAMETERS         Density guess:                                    ATOMIC
                        --------------------------------------------------------
                        max_scf:                                             150
                        max_scf_history:                                       0
                        max_diis:                                              4
                        --------------------------------------------------------
                        eps_scf:                                        1.00E-06
                        eps_scf_history:                                0.00E+00
                        eps_diis:                                       1.00E-01
                        eps_eigval:                                     1.00E-05
                        --------------------------------------------------------
                        level_shift [a.u.]:                                 0.00
                        --------------------------------------------------------
                        Mixing method:                           DIRECT_P_MIXING
                        --------------------------------------------------------
                        No outer SCF

 PW_GRID| Information for grid number                                          1
 PW_GRID| Cutoff [a.u.]                                                    100.0
 PW_GRID| spherical cutoff:                                                   NO
 PW_GRID|   Bounds   1            -27      26                Points:          54
 PW_GRID|   Bounds   2            -27      26                Points:          54
 PW_GRID|   Bounds   3            -27      26                Points:          54
 PW_GRID| Volume element (a.u.^3)  0.9257E-02     Volume (a.u.^3)      1457.6403
 PW_GRID| Grid span                                                    FULLSPACE

 PW_GRID| Information for grid number                                          2
 PW_GRID| Cutoff [a.u.]                                                     33.3
 PW_GRID| spherical cutoff:                                                   NO
 PW_GRID|   Bounds   1            -15      14                Points:          30
 PW_GRID|   Bounds   2            -15      14                Points:          30
 PW_GRID|   Bounds   3            -15      14                Points:          30
 PW_GRID| Volume element (a.u.^3)  0.5399E-01     Volume (a.u.^3)      1457.6403
 PW_GRID| Grid span                                                    FULLSPACE

 PW_GRID| Information for grid number                                          3
 PW_GRID| Cutoff [a.u.]                                                     11.1
 PW_GRID| spherical cutoff:                                                   NO
 PW_GRID|   Bounds   1             -9       8                Points:          18
 PW_GRID|   Bounds   2             -9       8                Points:          18
 PW_GRID|   Bounds   3             -9       8                Points:          18
 PW_GRID| Volume element (a.u.^3)  0.2499         Volume (a.u.^3)      1457.6403
 PW_GRID| Grid span                                                    FULLSPACE

 PW_GRID| Information for grid number                                          4
 PW_GRID| Cutoff [a.u.]                                                      3.7
 PW_GRID| spherical cutoff:                                                   NO
 PW_GRID|   Bounds   1             -4       4                Points:           9
 PW_GRID|   Bounds   2             -4       4                Points:           9
 PW_GRID|   Bounds   3             -4       4                Points:           9
 PW_GRID| Volume element (a.u.^3)   2.000         Volume (a.u.^3)      1457.6403
 PW_GRID| Grid span                                                    FULLSPACE

 POISSON| Solver                                                        PERIODIC
 POISSON| Periodicity                                                        XYZ

 RS_GRID| Information for grid number                                          1
 RS_GRID|   Bounds   1            -27      26                Points:          54
 RS_GRID|   Bounds   2            -27      26                Points:          54
 RS_GRID|   Bounds   3            -27      26                Points:          54

 RS_GRID| Information for grid number                                          2
 RS_GRID|   Bounds   1            -15      14                Points:          30
 RS_GRID|   Bounds   2            -15      14                Points:          30
 RS_GRID|   Bounds   3            -15      14                Points:          30

 RS_GRID| Information for grid number                                          3
 RS_GRID|   Bounds   1             -9       8                Points:          18
 RS_GRID|   Bounds   2             -9       8                Points:          18
 RS_GRID|   Bounds   3             -9       8                Points:          18

 RS_GRID| Information for grid number                                          4
 RS_GRID|   Bounds   1             -4       4                Points:           9
 RS_GRID|   Bounds   2             -4       4                Points:           9
 RS_GRID|   Bounds   3             -4       4                Points:           9

 DISTRIBUTION OF THE PARTICLES (ROWS)
              Process row      Number of particles         Number of matrix rows
                        0                        6                            -1
                      Sum                        6                            -1

 DISTRIBUTION OF THE PARTICLES (COLUMNS)
              Process col      Number of particles      Number of matrix columns
                        0                        6                            -1
                      Sum                        6                            -1

 MD| Molecular Dynamics Protocol 
 MD| Ensemble Type                                                         NPT_F
 MD| Number of Time Steps                                                     10
 MD| Time Step [fs]                                                         0.50
 MD| Temperature [K]                                                      300.00
 MD| Temperature tolerance [K]                                              0.00
 MD| Pressure [Bar]                                                         1.00
 MD| Barostat time constant [  fs]                                       1000.00
 MD| Print MD information every                                        1 step(s)
 MD| File type     Print frequency[steps]                             File names
 MD| Coordinates            1                                   H2O-md-pos-1.xyz
 MD| Simulation Cel         1                                      H2O-md-1.cell
 MD| Velocities             1                                   H2O-md-vel-1.xyz
 MD| Energies               1                                      H2O-md-1.ener
 MD| Dump                  20                                   H2O-md-1.restart

 ROT| Rotational Analysis Info 
 ROT| Principal axes and moments of inertia in atomic units:
 ROT|                                1                 2                 3
 ROT| EIGENVALUES            0.178238977E+05   0.538859080E+06   0.548270055E+06
 ROT|      X                     0.009532701      -0.889798615       0.456253824
 ROT|      Y                     0.999936505       0.005740357      -0.009697089
 ROT|      Z                     0.006009396       0.456317294       0.889796839
 ROT| Numer of Rotovibrational vectors:     6

 Calculation of degrees of freedom
                                                      Number of atoms:         6
                                 Number of Intramolecular constraints:         0
                                 Number of Intermolecular constraints:         0
                                  Invariants(translation + rotations):         3
                                                   Degrees of freedom:        15


 Restraints Information
                                  Number of Intramolecular restraints:         0
                                  Number of Intermolecular restraints:         0

 THERMOSTAT| Thermostat Info for PARTICLES
 THERMOSTAT| Type of thermostat                               Nose-Hoover-Chains
 THERMOSTAT| Nose-Hoover-Chain length                                          3
 THERMOSTAT| Nose-Hoover-Chain time constant [  fs]                      1000.00
 THERMOSTAT| Order of Yoshida integrator                                       3
 THERMOSTAT| Number of multiple time steps                                     2
 THERMOSTAT| Initial Potential Energy                                   0.000000
 THERMOSTAT| Initial Kinetic Energy                                     0.000475
 THERMOSTAT| End of Thermostat Info for PARTICLES


 THERMOSTAT| Thermostat Info for BAROSTAT
 THERMOSTAT| Type of thermostat                               Nose-Hoover-Chains
 THERMOSTAT| Nose-Hoover-Chain length                                          3
 THERMOSTAT| Nose-Hoover-Chain time constant [  fs]                      1000.00
 THERMOSTAT| Order of Yoshida integrator                                       3
 THERMOSTAT| Number of multiple time steps                                     2
 THERMOSTAT| Initial Potential Energy                                   0.000000
 THERMOSTAT| Initial Kinetic Energy                                     0.000475
 THERMOSTAT| End of Thermostat Info for BAROSTAT

 ************************** Velocities initialization **************************
 Initial Temperature                                                    300.00 K
 COM velocity:           -0.000000000000      0.000000000000      0.000000000000
 *******************************************************************************


 DISTRIBUTION OF THE NEIGHBOR LISTS
              Total number of particle pairs:                                336
              Total number of matrix elements:                             19792
              Average number of particle pairs:                              336
              Maximum number of particle pairs:                              336
              Average number of matrix element:                            19792
              Maximum number of matrix elements:                           19792


 DISTRIBUTION OF THE OVERLAP MATRIX
              Number  of non-zero blocks:                                     21
              Percentage non-zero blocks:                                 100.00
              Average number of blocks per CPU:                               21
              Maximum number of blocks per CPU:                               21
              Average number of matrix elements per CPU:                    1287
              Maximum number of matrix elements per CPU:                    1287

 Number of electrons:                                                         16
 Number of occupied orbitals:                                                  8
 Number of molecular orbitals:                                                 8

 Number of orbital functions:                                                 46
 Number of independent orbital functions:                                     46

 Extrapolation method: initial_guess

 Atomic guess: The first density matrix is obtained in terms of atomic orbitals
               and electronic configurations assigned to each atomic kind

 Guess for atomic kind: O

 Electronic structure
    Total number of core electrons                                          2.00
    Total number of valence electrons                                       6.00
    Total number of electrons                                               8.00
    Multiplicity                                                   not specified
    S   [  2.00] 2.00
    P      4.00


 *******************************************************************************
                  Iteration          Convergence                     Energy [au]
 *******************************************************************************
                          1         1.68085                     -14.857481728656
                          2         2.15642                     -14.936142370053
                          3        0.890654E-01                 -15.701381433081
                          4        0.300038E-02                 -15.702655347039
                          5        0.124050E-02                 -15.702656532555
                          6        0.771851E-03                 -15.702656682204
                          7        0.254544E-04                 -15.702656776553
                          8        0.154783E-06                 -15.702656776662

 Energy components [Hartree]           Total Energy ::          -15.702656776662
                                        Band Energy ::           -2.982159100248
                                     Kinetic Energy ::           11.942300538966
                                   Potential Energy ::          -27.644957315628
                                      Virial (-V/T) ::            2.314877039430
                                        Core Energy ::          -26.240316547129
                                          XC Energy ::           -3.168822356033
                                     Coulomb Energy ::           13.706482126500
                       Total Pseudopotential Energy ::          -38.217120617695
                       Local Pseudopotential Energy ::          -39.522374145046
                    Nonlocal Pseudopotential Energy ::            1.305253527351
                                        Confinement ::            0.345035316001

 Orbital energies  State     L     Occupation   Energy[a.u.]          Energy[eV]

                       1     0          2.000      -0.854038          -23.239548

                       1     1          4.000      -0.318521           -8.667395


 Guess for atomic kind: H

 Electronic structure
    Total number of core electrons                                          0.00
    Total number of valence electrons                                       1.00
    Total number of electrons                                               1.00
    Multiplicity                                                   not specified
    S      1.00


 *******************************************************************************
                  Iteration          Convergence                     Energy [au]
 *******************************************************************************
                          1        0.316011E-02                  -0.422390558413
                          2        0.333152E-03                  -0.422399635530
                          3        0.114302E-06                  -0.422399737491

 Energy components [Hartree]           Total Energy ::           -0.422399737491
                                        Band Energy ::           -0.193019372217
                                     Kinetic Energy ::            0.475009752129
                                   Potential Energy ::           -0.897409489620
                                      Virial (-V/T) ::            1.889244348347
                                        Core Energy ::           -0.478923189740
                                          XC Energy ::           -0.248206713182
                                     Coulomb Energy ::            0.304730165431
                       Total Pseudopotential Energy ::           -0.971460622099
                       Local Pseudopotential Energy ::           -0.971460622099
                    Nonlocal Pseudopotential Energy ::            0.000000000000
                                        Confinement ::            0.175276802303

 Orbital energies  State     L     Occupation   Energy[a.u.]          Energy[eV]

                       1     0          1.000      -0.193019           -5.252324

 Re-scaling the density matrix to get the right number of electrons
                  # Electrons              Trace(P)               Scaling factor
                           16                16.000                        1.000


 SCF WAVEFUNCTION OPTIMIZATION

  Step     Update method      Time    Convergence         Total energy    Change
  ------------------------------------------------------------------------------

  Trace(PS):                                   16.0000000000
  Electronic density on regular grids:        -15.9999969259        0.0000030741
  Core density on regular grids:               15.9999999800       -0.0000000200
  Total charge density on r-space grids:        0.0000030541
  Total charge density g-space grids:           0.0000030541

     1 P_Mix/Diag. 0.40E+00    0.0     0.95707449       -34.0259068763 -3.40E+01

  Trace(PS):                                   16.0000000000
  Electronic density on regular grids:        -15.9999965263        0.0000034737
  Core density on regular grids:               15.9999999800       -0.0000000200
  Total charge density on r-space grids:        0.0000034537
  Total charge density g-space grids:           0.0000034537

     2 P_Mix/Diag. 0.40E+00    0.1     0.57869046       -34.1511917706 -1.25E-01

  Trace(PS):                                   16.0000000000
  Electronic density on regular grids:        -15.9999966105        0.0000033895
  Core density on regular grids:               15.9999999800       -0.0000000200
  Total charge density on r-space grids:        0.0000033695
  Total charge density g-space grids:           0.0000033695

     3 P_Mix/Diag. 0.40E+00    0.1     0.34970674       -34.2267614186 -7.56E-02

  Trace(PS):                                   16.0000000000
  Electronic density on regular grids:        -15.9999966223        0.0000033777
  Core density on regular grids:               15.9999999800       -0.0000000200
  Total charge density on r-space grids:        0.0000033577
  Total charge density g-space grids:           0.0000033577

     4 P_Mix/Diag. 0.40E+00    0.1     0.20884438       -34.2711087143 -4.43E-02

  Trace(PS):                                   16.0000000000
  Electronic density on regular grids:        -15.9999966330        0.0000033670
  Core density on regular grids:               15.9999999800       -0.0000000200
  Total charge density on r-space grids:        0.0000033470
  Total charge density g-space grids:           0.0000033470

     5 P_Mix/Diag. 0.40E+00    0.1     0.12476299       -34.2973842627 -2.63E-02

  Trace(PS):                                   16.0000000000
  Electronic density on regular grids:        -15.9999966378        0.0000033622
  Core density on regular grids:               15.9999999800       -0.0000000200
  Total charge density on r-space grids:        0.0000033422
  Total charge density g-space grids:           0.0000033422

     6 P_Mix/Diag. 0.40E+00    0.1     0.07444600       -34.3130431388 -1.57E-02

  Trace(PS):                                   16.0000000000
  Electronic density on regular grids:        -15.9999966404        0.0000033596
  Core density on regular grids:               15.9999999800       -0.0000000200
  Total charge density on r-space grids:        0.0000033396
  Total charge density g-space grids:           0.0000033396

     7 DIIS/Diag.  0.51E-03    0.1     0.04403247       -34.3224040715 -9.36E-03

  Trace(PS):                                   16.0000000000
  Electronic density on regular grids:        -15.9999966429        0.0000033571
  Core density on regular grids:               15.9999999800       -0.0000000200
  Total charge density on r-space grids:        0.0000033371
  Total charge density g-space grids:           0.0000033371

     8 DIIS/Diag.  0.34E-04    0.1     0.00010921       -34.3364035284 -1.40E-02

  Trace(PS):                                   16.0000000000
  Electronic density on regular grids:        -15.9999966429        0.0000033571
  Core density on regular grids:               15.9999999800       -0.0000000200
  Total charge density on r-space grids:        0.0000033371
  Total charge density g-space grids:           0.0000033371

     9 DIIS/Diag.  0.13E-04    0.1     0.00001091       -34.3364035303 -1.91E-09

  Trace(PS):                                   16.0000000000
  Electronic density on regular grids:        -15.9999966429        0.0000033571
  Core density on regular grids:               15.9999999800       -0.0000000200
  Total charge density on r-space grids:        0.0000033371
  Total charge density g-space grids:           0.0000033371

    10 DIIS/Diag.  0.48E-05    0.1     0.00001522       -34.3364035304 -9.96E-11

  Trace(PS):                                   16.0000000000
  Electronic density on regular grids:        -15.9999966429        0.0000033571
  Core density on regular grids:               15.9999999800       -0.0000000200
  Total charge density on r-space grids:        0.0000033371
  Total charge density g-space grids:           0.0000033371

    11 DIIS/Diag.  0.22E-05    0.1     0.00000382       -34.3364035304 -2.55E-11

  Trace(PS):                                   16.0000000000
  Electronic density on regular grids:        -15.9999966429        0.0000033571
  Core density on regular grids:               15.9999999800       -0.0000000200
  Total charge density on r-space grids:        0.0000033371
  Total charge density g-space grids:           0.0000033371

    12 DIIS/Diag.  0.38E-06    0.1     0.00000054       -34.3364035304 -5.29E-12

  *** SCF run converged in    12 steps ***


  Electronic density on regular grids:        -15.9999966429        0.0000033571
  Core density on regular grids:               15.9999999800       -0.0000000200
  Total charge density on r-space grids:        0.0000033371
  Total charge density g-space grids:           0.0000033371

  Overlap energy of the core charge distribution:               0.00000005862748
  Self energy of the core charge distribution:                -87.66578109182967
  Core Hamiltonian energy:                                     25.56682954769509
  Hartree energy:                                              35.99884009118040
  Exchange-correlation energy:                                 -8.23629213607864

  Total energy:                                               -34.33640353040533


 MULLIKEN POPULATION ANALYSIS

 #  Atom  Element  Kind  Atomic population                Net charge
       1     O        1          6.620722                 -0.620722
       2     O        1          6.621838                 -0.621838
       3     H        2          0.700073                  0.299927
       4     H        2          0.679117                  0.320883
       5     H        2          0.698066                  0.301934
       6     H        2          0.680183                  0.319817
 # Total charge                 16.000000                 -0.000000


 !-----------------------------------------------------------------------------!
                           Hirschfeld Charges

  #Atom  Element  Kind  Ref Charge     Population                     Net charge
      1       O      1       6.000          6.543                         -0.543
      2       O      1       6.000          6.543                         -0.543
      3       H      2       1.000          0.723                          0.277
      4       H      2       1.000          0.734                          0.266
      5       H      2       1.000          0.723                          0.277
      6       H      2       1.000          0.734                          0.266

  Total Charge                                                             0.000
 !-----------------------------------------------------------------------------!

  Trace(PS):                                   16.0000000000
  Electronic density on regular grids:        -15.9999966429        0.0000033571
  Core density on regular grids:               15.9999999800       -0.0000000200
  Total charge density on r-space grids:        0.0000033371
  Total charge density g-space grids:           0.0000033371


 ENERGY| Total FORCE_EVAL ( QS ) energy (a.u.):              -34.336403530405377


 MD_ENERGIES| Initialization proceeding


 ******************************** GO CP2K GO! **********************************
 INITIAL POTENTIAL ENERGY[hartree]     =                     -0.343364035304E+02
 INITIAL KINETIC ENERGY[hartree]       =                      0.712533452240E-02
 INITIAL TEMPERATURE[K]                =                                 300.000
 INITIAL BAROSTAT TEMP[K]              =                      0.300000000000E+03
 INITIAL PRESSURE[bar]                 =                     -0.192828092559E+04
 INITIAL VOLUME[bohr^3]                =                      0.145764026995E+04
 INITIAL CELL LNTHS[bohr]   =      0.1133836E+02   0.1133836E+02   0.1133836E+02
 INITIAL CELL ANGLS[deg]    =      0.9000000E+02   0.9000000E+02   0.9000000E+02
 ******************************** GO CP2K GO! **********************************

 -------------------------------------------------------------------------------
 ----                             MULTIGRID INFO                            ----
 -------------------------------------------------------------------------------
 count for grid        1:           1508          cutoff [a.u.]          100.00
 count for grid        2:           1272          cutoff [a.u.]           33.33
 count for grid        3:           1366          cutoff [a.u.]           11.11
 count for grid        4:            240          cutoff [a.u.]            3.70
 total gridlevel count  :           4386

 PW_GRID| Information for grid number                                          5
 PW_GRID| Cutoff [a.u.]                                                    100.0
 PW_GRID| spherical cutoff:                                                   NO
 PW_GRID|   Bounds   1            -27      26                Points:          54
 PW_GRID|   Bounds   2            -27      26                Points:          54
 PW_GRID|   Bounds   3            -27      26                Points:          54
 PW_GRID| Volume element (a.u.^3)  0.9261E-02     Volume (a.u.^3)      1458.2775
 PW_GRID| Grid span                                                    FULLSPACE

 PW_GRID| Information for grid number                                          6
 PW_GRID| Cutoff [a.u.]                                                     33.3
 PW_GRID| spherical cutoff:                                                   NO
 PW_GRID|   Bounds   1            -15      14                Points:          30
 PW_GRID|   Bounds   2            -15      14                Points:          30
 PW_GRID|   Bounds   3            -15      14                Points:          30
 PW_GRID| Volume element (a.u.^3)  0.5401E-01     Volume (a.u.^3)      1458.2775
 PW_GRID| Grid span                                                    FULLSPACE

 PW_GRID| Information for grid number                                          7
 PW_GRID| Cutoff [a.u.]                                                     11.1
 PW_GRID| spherical cutoff:                                                   NO
 PW_GRID|   Bounds   1             -9       8                Points:          18
 PW_GRID|   Bounds   2             -9       8                Points:          18
 PW_GRID|   Bounds   3             -9       8                Points:          18
 PW_GRID| Volume element (a.u.^3)  0.2500         Volume (a.u.^3)      1458.2775
 PW_GRID| Grid span                                                    FULLSPACE

 PW_GRID| Information for grid number                                          8
 PW_GRID| Cutoff [a.u.]                                                      3.7
 PW_GRID| spherical cutoff:                                                   NO
 PW_GRID|   Bounds   1             -4       4                Points:           9
 PW_GRID|   Bounds   2             -4       4                Points:           9
 PW_GRID|   Bounds   3             -4       4                Points:           9
 PW_GRID| Volume element (a.u.^3)   2.000         Volume (a.u.^3)      1458.2775
 PW_GRID| Grid span                                                    FULLSPACE

 POISSON| Solver                                                        PERIODIC
 POISSON| Periodicity                                                        XYZ

 RS_GRID| Information for grid number                                          5
 RS_GRID|   Bounds   1            -27      26                Points:          54
 RS_GRID|   Bounds   2            -27      26                Points:          54
 RS_GRID|   Bounds   3            -27      26                Points:          54

 RS_GRID| Information for grid number                                          6
 RS_GRID|   Bounds   1            -15      14                Points:          30
 RS_GRID|   Bounds   2            -15      14                Points:          30
 RS_GRID|   Bounds   3            -15      14                Points:          30

 RS_GRID| Information for grid number                                          7
 RS_GRID|   Bounds   1             -9       8                Points:          18
 RS_GRID|   Bounds   2             -9       8                Points:          18
 RS_GRID|   Bounds   3             -9       8                Points:          18

 RS_GRID| Information for grid number                                          8
 RS_GRID|   Bounds   1             -4       4                Points:           9
 RS_GRID|   Bounds   2             -4       4                Points:           9
 RS_GRID|   Bounds   3             -4       4                Points:           9

 DISTRIBUTION OF THE NEIGHBOR LISTS
              Total number of particle pairs:                                336
              Total number of matrix elements:                             19792
              Average number of particle pairs:                              336
              Maximum number of particle pairs:                              336
              Average number of matrix element:                            19792
              Maximum number of matrix elements:                           19792


 DISTRIBUTION OF THE OVERLAP MATRIX
              Number  of non-zero blocks:                                     21
              Percentage non-zero blocks:                                 100.00
              Average number of blocks per CPU:                               21
              Maximum number of blocks per CPU:                               21
              Average number of matrix elements per CPU:                    1287
              Maximum number of matrix elements per CPU:                    1287

 Number of electrons:                                                         16
 Number of occupied orbitals:                                                  8
 Number of molecular orbitals:                                                 8

 Number of orbital functions:                                                 46
 Number of independent orbital functions:                                     46

 Extrapolation method: PS Nth order


 SCF WAVEFUNCTION OPTIMIZATION

  Step     Update method      Time    Convergence         Total energy    Change
  ------------------------------------------------------------------------------

  Trace(PS):                                   16.0000000000
  Electronic density on regular grids:        -15.9999965542        0.0000034458
  Core density on regular grids:               15.9999999888       -0.0000000112
  Total charge density on r-space grids:        0.0000034346
  Total charge density g-space grids:           0.0000034346

     1 P_Mix/Diag. 0.40E+00    0.1     0.02449804       -34.3364859238 -3.43E+01

  Trace(PS):                                   16.0000000000
  Electronic density on regular grids:        -15.9999965524        0.0000034476
  Core density on regular grids:               15.9999999888       -0.0000000112
  Total charge density on r-space grids:        0.0000034364
  Total charge density g-space grids:           0.0000034364

     2 P_Mix/Diag. 0.40E+00    0.1     0.01592153       -34.3365472482 -6.13E-05

  Trace(PS):                                   16.0000000000
  Electronic density on regular grids:        -15.9999965519        0.0000034481
  Core density on regular grids:               15.9999999888       -0.0000000112
  Total charge density on r-space grids:        0.0000034369
  Total charge density g-space grids:           0.0000034369

     3 DIIS/Diag.  0.47E-03    0.1     0.00862525       -34.3365840027 -3.68E-05

  Trace(PS):                                   16.0000000000
  Electronic density on regular grids:        -15.9999965511        0.0000034489
  Core density on regular grids:               15.9999999888       -0.0000000112
  Total charge density on r-space grids:        0.0000034377
  Total charge density g-space grids:           0.0000034377

     4 DIIS/Diag.  0.34E-03    0.1     0.00023233       -34.3366381995 -5.42E-05

  Trace(PS):                                   16.0000000000
  Electronic density on regular grids:        -15.9999965511        0.0000034489
  Core density on regular grids:               15.9999999888       -0.0000000112
  Total charge density on r-space grids:        0.0000034377
  Total charge density g-space grids:           0.0000034377

     5 DIIS/Diag.  0.52E-03    0.1     0.00024485       -34.3366380430  1.57E-07

  Trace(PS):                                   16.0000000000
  Electronic density on regular grids:        -15.9999965512        0.0000034488
  Core density on regular grids:               15.9999999888       -0.0000000112
  Total charge density on r-space grids:        0.0000034376
  Total charge density g-space grids:           0.0000034376

     6 DIIS/Diag.  0.35E-03    0.1     0.00041582       -34.3366382082 -1.65E-07

  Trace(PS):                                   16.0000000000
  Electronic density on regular grids:        -15.9999965512        0.0000034488
  Core density on regular grids:               15.9999999888       -0.0000000112
  Total charge density on r-space grids:        0.0000034376
  Total charge density g-space grids:           0.0000034376

     7 DIIS/Diag.  0.21E-04    0.1     0.00001730       -34.3366383113 -1.03E-07

  Trace(PS):                                   16.0000000000
  Electronic density on regular grids:        -15.9999965512        0.0000034488
  Core density on regular grids:               15.9999999888       -0.0000000112
  Total charge density on r-space grids:        0.0000034376
  Total charge density g-space grids:           0.0000034376

     8 DIIS/Diag.  0.25E-05    0.1     0.00000684       -34.3366383116 -3.31E-10

  Trace(PS):                                   16.0000000000
  Electronic density on regular grids:        -15.9999965512        0.0000034488
  Core density on regular grids:               15.9999999888       -0.0000000112
  Total charge density on r-space grids:        0.0000034376
  Total charge density g-space grids:           0.0000034376

     9 DIIS/Diag.  0.53E-06    0.1     0.00000154       -34.3366383116 -5.68E-14

  Trace(PS):                                   16.0000000000
  Electronic density on regular grids:        -15.9999965512        0.0000034488
  Core density on regular grids:               15.9999999888       -0.0000000112
  Total charge density on r-space grids:        0.0000034376
  Total charge density g-space grids:           0.0000034376

    10 DIIS/Diag.  0.62E-07    0.1     0.00000013       -34.3366383116 -9.17E-13

  *** SCF run converged in    10 steps ***


  Electronic density on regular grids:        -15.9999965512        0.0000034488
  Core density on regular grids:               15.9999999888       -0.0000000112
  Total charge density on r-space grids:        0.0000034376
  Total charge density g-space grids:           0.0000034376

  Overlap energy of the core charge distribution:               0.00000005920863
  Self energy of the core charge distribution:                -87.66578109182967
  Core Hamiltonian energy:                                     25.57277665956342
  Hartree energy:                                              35.99443962305115
  Exchange-correlation energy:                                 -8.23807356159897

  Total energy:                                               -34.33663831160543


 MULLIKEN POPULATION ANALYSIS

 #  Atom  Element  Kind  Atomic population                Net charge
       1     O        1          6.621854                 -0.621854
       2     O        1          6.619759                 -0.619759
       3     H        2          0.699007                  0.300993
       4     H        2          0.680398                  0.319602
       5     H        2          0.698264                  0.301736
       6     H        2          0.680719                  0.319281
 # Total charge                 16.000000                  0.000000


 !-----------------------------------------------------------------------------!
                           Hirschfeld Charges

  #Atom  Element  Kind  Ref Charge     Population                     Net charge
      1       O      1       6.000          6.545                         -0.545
      2       O      1       6.000          6.541                         -0.541
      3       H      2       1.000          0.725                          0.275
      4       H      2       1.000          0.731                          0.269
      5       H      2       1.000          0.723                          0.277
      6       H      2       1.000          0.735                          0.265

  Total Charge                                                             0.000
 !-----------------------------------------------------------------------------!

  Trace(PS):                                   16.0000000000
  Electronic density on regular grids:        -15.9999965512        0.0000034488
  Core density on regular grids:               15.9999999888       -0.0000000112
  Total charge density on r-space grids:        0.0000034376
  Total charge density g-space grids:           0.0000034376


 ENERGY| Total FORCE_EVAL ( QS ) energy (a.u.):              -34.336638311605313


 Centre of mass motion (COM):                            x =        0.0000063394
                                                         y =       -0.0000052638
                                                         z =       -0.0000077546

 *******************************************************************************
 ENSEMBLE TYPE                =                                            NPT_F
 STEP NUMBER                  =                                                1
 TIME [fs]                    =                                         0.500000
 CONSERVED QUANTITY [hartree] =                              -0.343240544028E+02

                                              INSTANTANEOUS             AVERAGES
 CPU TIME [s]                 =                        1.97                 1.97
 ENERGY DRIFT PER ATOM [K]    =         -0.337174401623E+00   0.000000000000E+00
 POTENTIAL ENERGY[hartree]    =         -0.343366383116E+02  -0.343366383116E+02
 KINETIC ENERGY [hartree]     =          0.735803837990E-02   0.735803837990E-02
 TEMPERATURE [K]              =                     309.798              309.798
 PRESSURE [bar]               =         -0.145371071470E+04  -0.145371071470E+04
 BAROSTAT TEMP[K]             =          0.299471596664E+03   0.299471596664E+03
 VOLUME[bohr^3]               =          0.145827751823E+04   0.145827751823E+04
 CELL LNTHS[bohr]             =    0.1133758E+02   0.1134253E+02   0.1133993E+02
 AVE. CELL LNTHS[bohr]        =    0.1133758E+02   0.1134253E+02   0.1133993E+02
 CELL ANGLS[deg]              =    0.9002946E+02   0.9001934E+02   0.9001314E+02
 AVE. CELL ANGLS[deg]         =    0.9002946E+02   0.9001934E+02   0.9001314E+02
 *******************************************************************************


 -------------------------------------------------------------------------------
 ----                             MULTIGRID INFO                            ----
 -------------------------------------------------------------------------------
 count for grid        1:           1506          cutoff [a.u.]          100.00
 count for grid        2:           1272          cutoff [a.u.]           33.33
 count for grid        3:           1364          cutoff [a.u.]           11.11
 count for grid        4:            240          cutoff [a.u.]            3.70
 total gridlevel count  :           4382

 PW_GRID| Information for grid number                                          9
 PW_GRID| Cutoff [a.u.]                                                    100.0
 PW_GRID| spherical cutoff:                                                   NO
 PW_GRID|   Bounds   1            -27      26                Points:          54
 PW_GRID|   Bounds   2            -27      26                Points:          54
 PW_GRID|   Bounds   3            -27      26                Points:          54
 PW_GRID| Volume element (a.u.^3)  0.9265E-02     Volume (a.u.^3)      1458.9137
 PW_GRID| Grid span                                                    FULLSPACE

 PW_GRID| Information for grid number                                         10
 PW_GRID| Cutoff [a.u.]                                                     33.3
 PW_GRID| spherical cutoff:                                                   NO
 PW_GRID|   Bounds   1            -15      14                Points:          30
 PW_GRID|   Bounds   2            -15      14                Points:          30
 PW_GRID|   Bounds   3            -15      14                Points:          30
 PW_GRID| Volume element (a.u.^3)  0.5403E-01     Volume (a.u.^3)      1458.9137
 PW_GRID| Grid span                                                    FULLSPACE

 PW_GRID| Information for grid number                                         11
 PW_GRID| Cutoff [a.u.]                                                     11.1
 PW_GRID| spherical cutoff:                                                   NO
 PW_GRID|   Bounds   1             -9       8                Points:          18
 PW_GRID|   Bounds   2             -9       8                Points:          18
 PW_GRID|   Bounds   3             -9       8                Points:          18
 PW_GRID| Volume element (a.u.^3)  0.2502         Volume (a.u.^3)      1458.9137
 PW_GRID| Grid span                                                    FULLSPACE

 PW_GRID| Information for grid number                                         12
 PW_GRID| Cutoff [a.u.]                                                      3.7
 PW_GRID| spherical cutoff:                                                   NO
 PW_GRID|   Bounds   1             -4       4                Points:           9
 PW_GRID|   Bounds   2             -4       4                Points:           9
 PW_GRID|   Bounds   3             -4       4                Points:           9
 PW_GRID| Volume element (a.u.^3)   2.001         Volume (a.u.^3)      1458.9137
 PW_GRID| Grid span                                                    FULLSPACE

 POISSON| Solver                                                        PERIODIC
 POISSON| Periodicity                                                        XYZ

 RS_GRID| Information for grid number                                          9
 RS_GRID|   Bounds   1            -27      26                Points:          54
 RS_GRID|   Bounds   2            -27      26                Points:          54
 RS_GRID|   Bounds   3            -27      26                Points:          54

 RS_GRID| Information for grid number                                         10
 RS_GRID|   Bounds   1            -15      14                Points:          30
 RS_GRID|   Bounds   2            -15      14                Points:          30
 RS_GRID|   Bounds   3            -15      14                Points:          30

 RS_GRID| Information for grid number                                         11
 RS_GRID|   Bounds   1             -9       8                Points:          18
 RS_GRID|   Bounds   2             -9       8                Points:          18
 RS_GRID|   Bounds   3             -9       8                Points:          18

 RS_GRID| Information for grid number                                         12
 RS_GRID|   Bounds   1             -4       4                Points:           9
 RS_GRID|   Bounds   2             -4       4                Points:           9
 RS_GRID|   Bounds   3             -4       4                Points:           9

 DISTRIBUTION OF THE NEIGHBOR LISTS
              Total number of particle pairs:                                336
              Total number of matrix elements:                             19792
              Average number of particle pairs:                              336
              Maximum number of particle pairs:                              336
              Average number of matrix element:                            19792
              Maximum number of matrix elements:                           19792


 DISTRIBUTION OF THE OVERLAP MATRIX
              Number  of non-zero blocks:                                     21
              Percentage non-zero blocks:                                 100.00
              Average number of blocks per CPU:                               21
              Maximum number of blocks per CPU:                               21
              Average number of matrix elements per CPU:                    1287
              Maximum number of matrix elements per CPU:                    1287

 Number of electrons:                                                         16
 Number of occupied orbitals:                                                  8
 Number of molecular orbitals:                                                 8

 Number of orbital functions:                                                 46
 Number of independent orbital functions:                                     46

 Extrapolation method: PS Nth order


 SCF WAVEFUNCTION OPTIMIZATION

  Step     Update method      Time    Convergence         Total energy    Change
  ------------------------------------------------------------------------------

  Trace(PS):                                   16.0000000000
  Electronic density on regular grids:        -15.9999964397        0.0000035603
  Core density on regular grids:               15.9999999991       -0.0000000009
  Total charge density on r-space grids:        0.0000035594
  Total charge density g-space grids:           0.0000035594

     1 P_Mix/Diag. 0.40E+00    0.1     0.00526704       -34.3366900752 -3.43E+01

  Trace(PS):                                   16.0000000000
  Electronic density on regular grids:        -15.9999964371        0.0000035629
  Core density on regular grids:               15.9999999991       -0.0000000009
  Total charge density on r-space grids:        0.0000035620
  Total charge density g-space grids:           0.0000035620

     2 P_Mix/Diag. 0.40E+00    0.1     0.00393796       -34.3366934955 -3.42E-06

  Trace(PS):                                   16.0000000000
  Electronic density on regular grids:        -15.9999964371        0.0000035629
  Core density on regular grids:               15.9999999991       -0.0000000009
  Total charge density on r-space grids:        0.0000035620
  Total charge density g-space grids:           0.0000035620

     3 DIIS/Diag.  0.18E-03    0.1     0.00196402       -34.3366955928 -2.10E-06

  Trace(PS):                                   16.0000000000
  Electronic density on regular grids:        -15.9999964366        0.0000035634
  Core density on regular grids:               15.9999999991       -0.0000000009
  Total charge density on r-space grids:        0.0000035626
  Total charge density g-space grids:           0.0000035626

     4 DIIS/Diag.  0.99E-04    0.1     0.00000052       -34.3366986738 -3.08E-06

  *** SCF run converged in     4 steps ***


  Electronic density on regular grids:        -15.9999964366        0.0000035634
  Core density on regular grids:               15.9999999991       -0.0000000009
  Total charge density on r-space grids:        0.0000035626
  Total charge density g-space grids:           0.0000035626

  Overlap energy of the core charge distribution:               0.00000006717797
  Self energy of the core charge distribution:                -87.66578109182967
  Core Hamiltonian energy:                                     25.58909992752680
  Hartree energy:                                              35.98272150138760
  Exchange-correlation energy:                                 -8.24273907809343

  Total energy:                                               -34.33669867383072


 MULLIKEN POPULATION ANALYSIS

 #  Atom  Element  Kind  Atomic population                Net charge
       1     O        1          6.623004                 -0.623004
       2     O        1          6.618057                 -0.618057
       3     H        2          0.697640                  0.302360
       4     H        2          0.681857                  0.318143
       5     H        2          0.698121                  0.301879
       6     H        2          0.681322                  0.318678
 # Total charge                 16.000000                 -0.000000


 !-----------------------------------------------------------------------------!
                           Hirschfeld Charges

  #Atom  Element  Kind  Ref Charge     Population                     Net charge
      1       O      1       6.000          6.547                         -0.547
      2       O      1       6.000          6.539                         -0.539
      3       H      2       1.000          0.727                          0.273
      4       H      2       1.000          0.728                          0.272
      5       H      2       1.000          0.723                          0.277
      6       H      2       1.000          0.736                          0.264

  Total Charge                                                             0.000
 !-----------------------------------------------------------------------------!

  Trace(PS):                                   16.0000000000
  Electronic density on regular grids:        -15.9999964366        0.0000035634
  Core density on regular grids:               15.9999999991       -0.0000000009
  Total charge density on r-space grids:        0.0000035626
  Total charge density g-space grids:           0.0000035626


 ENERGY| Total FORCE_EVAL ( QS ) energy (a.u.):              -34.336698673903676


 Centre of mass motion (COM):                            x =        0.0000124969
                                                         y =       -0.0000106314
                                                         z =       -0.0000154045

 *******************************************************************************
 ENSEMBLE TYPE                =                                            NPT_F
 STEP NUMBER                  =                                                2
 TIME [fs]                    =                                         1.000000
 CONSERVED QUANTITY [hartree] =                              -0.343240567328E+02

                                              INSTANTANEOUS             AVERAGES
 CPU TIME [s]                 =                        0.61                 1.29
 ENERGY DRIFT PER ATOM [K]    =         -0.459802539535E+00  -0.229901269768E+00
 POTENTIAL ENERGY[hartree]    =         -0.343366986739E+02  -0.343366684928E+02
 KINETIC ENERGY [hartree]     =          0.741487776862E-02   0.738645807426E-02
 TEMPERATURE [K]              =                     312.191              310.994
 PRESSURE [bar]               =         -0.210098903760E+03  -0.831904809228E+03
 BAROSTAT TEMP[K]             =          0.299328180855E+03   0.299399888760E+03
 VOLUME[bohr^3]               =          0.145891374863E+04   0.145859563343E+04
 CELL LNTHS[bohr]             =    0.1133678E+02   0.1134673E+02   0.1134148E+02
 AVE. CELL LNTHS[bohr]        =    0.1133718E+02   0.1134463E+02   0.1134070E+02
 CELL ANGLS[deg]              =    0.9005890E+02   0.9003843E+02   0.9002618E+02
 AVE. CELL ANGLS[deg]         =    0.9004418E+02   0.9002888E+02   0.9001966E+02
 *******************************************************************************


 -------------------------------------------------------------------------------
 ----                             MULTIGRID INFO                            ----
 -------------------------------------------------------------------------------
 count for grid        1:           1505          cutoff [a.u.]          100.00
 count for grid        2:           1275          cutoff [a.u.]           33.33
 count for grid        3:           1361          cutoff [a.u.]           11.11
 count for grid        4:            240          cutoff [a.u.]            3.70
 total gridlevel count  :           4381

 PW_GRID| Information for grid number                                         13
 PW_GRID| Cutoff [a.u.]                                                    100.0
 PW_GRID| spherical cutoff:                                                   NO
 PW_GRID|   Bounds   1            -27      26                Points:          54
 PW_GRID|   Bounds   2            -27      26                Points:          54
 PW_GRID|   Bounds   3            -27      26                Points:          54
 PW_GRID| Volume element (a.u.^3)  0.9269E-02     Volume (a.u.^3)      1459.5501
 PW_GRID| Grid span                                                    FULLSPACE

 PW_GRID| Information for grid number                                         14
 PW_GRID| Cutoff [a.u.]                                                     33.3
 PW_GRID| spherical cutoff:                                                   NO
 PW_GRID|   Bounds   1            -15      14                Points:          30
 PW_GRID|   Bounds   2            -15      14                Points:          30
 PW_GRID|   Bounds   3            -15      14                Points:          30
 PW_GRID| Volume element (a.u.^3)  0.5406E-01     Volume (a.u.^3)      1459.5501
 PW_GRID| Grid span                                                    FULLSPACE

 PW_GRID| Information for grid number                                         15
 PW_GRID| Cutoff [a.u.]                                                     11.1
 PW_GRID| spherical cutoff:                                                   NO
 PW_GRID|   Bounds   1             -9       8                Points:          18
 PW_GRID|   Bounds   2             -9       8                Points:          18
 PW_GRID|   Bounds   3             -9       8                Points:          18
 PW_GRID| Volume element (a.u.^3)  0.2503         Volume (a.u.^3)      1459.5501
 PW_GRID| Grid span                                                    FULLSPACE

 PW_GRID| Information for grid number                                         16
 PW_GRID| Cutoff [a.u.]                                                      3.7
 PW_GRID| spherical cutoff:                                                   NO
 PW_GRID|   Bounds   1             -4       4                Points:           9
 PW_GRID|   Bounds   2             -4       4                Points:           9
 PW_GRID|   Bounds   3             -4       4                Points:           9
 PW_GRID| Volume element (a.u.^3)   2.002         Volume (a.u.^3)      1459.5501
 PW_GRID| Grid span                                                    FULLSPACE

 POISSON| Solver                                                        PERIODIC
 POISSON| Periodicity                                                        XYZ

 RS_GRID| Information for grid number                                         13
 RS_GRID|   Bounds   1            -27      26                Points:          54
 RS_GRID|   Bounds   2            -27      26                Points:          54
 RS_GRID|   Bounds   3            -27      26                Points:          54

 RS_GRID| Information for grid number                                         14
 RS_GRID|   Bounds   1            -15      14                Points:          30
 RS_GRID|   Bounds   2            -15      14                Points:          30
 RS_GRID|   Bounds   3            -15      14                Points:          30

 RS_GRID| Information for grid number                                         15
 RS_GRID|   Bounds   1             -9       8                Points:          18
 RS_GRID|   Bounds   2             -9       8                Points:          18
 RS_GRID|   Bounds   3             -9       8                Points:          18

 RS_GRID| Information for grid number                                         16
 RS_GRID|   Bounds   1             -4       4                Points:           9
 RS_GRID|   Bounds   2             -4       4                Points:           9
 RS_GRID|   Bounds   3             -4       4                Points:           9

 DISTRIBUTION OF THE NEIGHBOR LISTS
              Total number of particle pairs:                                334
              Total number of matrix elements:                             19742
              Average number of particle pairs:                              334
              Maximum number of particle pairs:                              334
              Average number of matrix element:                            19742
              Maximum number of matrix elements:                           19742


 DISTRIBUTION OF THE OVERLAP MATRIX
              Number  of non-zero blocks:                                     21
              Percentage non-zero blocks:                                 100.00
              Average number of blocks per CPU:                               21
[...]
 RS_GRID|   Bounds   1             -4       4                Points:           9
 RS_GRID|   Bounds   2             -4       4                Points:           9
 RS_GRID|   Bounds   3             -4       4                Points:           9

 DISTRIBUTION OF THE NEIGHBOR LISTS
              Total number of particle pairs:                                327
              Total number of matrix elements:                             19567
              Average number of particle pairs:                              327
              Maximum number of particle pairs:                              327
              Average number of matrix element:                            19567
              Maximum number of matrix elements:                           19567


 DISTRIBUTION OF THE OVERLAP MATRIX
              Number  of non-zero blocks:                                     21
              Percentage non-zero blocks:                                 100.00
              Average number of blocks per CPU:                               21
              Maximum number of blocks per CPU:                               21
              Average number of matrix elements per CPU:                    1287
              Maximum number of matrix elements per CPU:                    1287

 Number of electrons:                                                         16
 Number of occupied orbitals:                                                  8
 Number of molecular orbitals:                                                 8

 Number of orbital functions:                                                 46
 Number of independent orbital functions:                                     46

 Extrapolation method: PS Nth order


 SCF WAVEFUNCTION OPTIMIZATION

  Step     Update method      Time    Convergence         Total energy    Change
  ------------------------------------------------------------------------------

  Trace(PS):                                   16.0000000000
  Electronic density on regular grids:        -15.9999960159        0.0000039841
  Core density on regular grids:               16.0000001072        0.0000001072
  Total charge density on r-space grids:        0.0000040913
  Total charge density g-space grids:           0.0000040913

     1 P_Mix/Diag. 0.40E+00    0.0     0.00145198       -34.3370603409 -3.43E+01

  Trace(PS):                                   16.0000000000
  Electronic density on regular grids:        -15.9999960154        0.0000039846
  Core density on regular grids:               16.0000001072        0.0000001072
  Total charge density on r-space grids:        0.0000040919
  Total charge density g-space grids:           0.0000040919

     2 P_Mix/Diag. 0.40E+00    0.1     0.00097143       -34.3370605320 -1.91E-07

  Trace(PS):                                   16.0000000000
  Electronic density on regular grids:        -15.9999960153        0.0000039847
  Core density on regular grids:               16.0000001072        0.0000001072
  Total charge density on r-space grids:        0.0000040919
  Total charge density g-space grids:           0.0000040919

     3 DIIS/Diag.  0.23E-04    0.1     0.00052986       -34.3370606448 -1.13E-07

  Trace(PS):                                   16.0000000000
  Electronic density on regular grids:        -15.9999960152        0.0000039848
  Core density on regular grids:               16.0000001072        0.0000001072
  Total charge density on r-space grids:        0.0000040921
  Total charge density g-space grids:           0.0000040921

     4 DIIS/Diag.  0.28E-04    0.1     0.00001054       -34.3370608091 -1.64E-07

  Trace(PS):                                   16.0000000000
  Electronic density on regular grids:        -15.9999960152        0.0000039848
  Core density on regular grids:               16.0000001072        0.0000001072
  Total charge density on r-space grids:        0.0000040921
  Total charge density g-space grids:           0.0000040921

     5 DIIS/Diag.  0.37E-04    0.1     0.00001373       -34.3370608088  3.75E-10

  Trace(PS):                                   16.0000000000
  Electronic density on regular grids:        -15.9999960152        0.0000039848
  Core density on regular grids:               16.0000001072        0.0000001072
  Total charge density on r-space grids:        0.0000040921
  Total charge density g-space grids:           0.0000040921

     6 DIIS/Diag.  0.24E-04    0.1     0.00002881       -34.3370608092 -4.69E-10

  Trace(PS):                                   16.0000000000
  Electronic density on regular grids:        -15.9999960152        0.0000039848
  Core density on regular grids:               16.0000001072        0.0000001072
  Total charge density on r-space grids:        0.0000040920
  Total charge density g-space grids:           0.0000040920

     7 DIIS/Diag.  0.18E-05    0.1     0.00000141       -34.3370608096 -3.66E-10

  Trace(PS):                                   16.0000000000
  Electronic density on regular grids:        -15.9999960152        0.0000039848
  Core density on regular grids:               16.0000001072        0.0000001072
  Total charge density on r-space grids:        0.0000040920
  Total charge density g-space grids:           0.0000040920

     8 DIIS/Diag.  0.13E-06    0.1     0.00000039       -34.3370608096 -1.97E-12

  *** SCF run converged in     8 steps ***


  Electronic density on regular grids:        -15.9999960152        0.0000039848
  Core density on regular grids:               16.0000001072        0.0000001072
  Total charge density on r-space grids:        0.0000040920
  Total charge density g-space grids:           0.0000040920

  Overlap energy of the core charge distribution:               0.00000014160098
  Self energy of the core charge distribution:                -87.66578109182967
  Core Hamiltonian energy:                                     25.72117325418721
  Hartree energy:                                              35.88678138309248
  Exchange-correlation energy:                                 -8.27923449665616

  Total energy:                                               -34.33706080960516


 MULLIKEN POPULATION ANALYSIS

 #  Atom  Element  Kind  Atomic population                Net charge
       1     O        1          6.628836                 -0.628836
       2     O        1          6.620365                 -0.620365
       3     H        2          0.691187                  0.308813
       4     H        2          0.684742                  0.315258
       5     H        2          0.694463                  0.305537
       6     H        2          0.680407                  0.319593
 # Total charge                 16.000000                  0.000000


 !-----------------------------------------------------------------------------!
                           Hirschfeld Charges

  #Atom  Element  Kind  Ref Charge     Population                     Net charge
      1       O      1       6.000          6.546                         -0.546
      2       O      1       6.000          6.539                         -0.539
      3       H      2       1.000          0.729                          0.271
      4       H      2       1.000          0.730                          0.270
      5       H      2       1.000          0.733                          0.267
      6       H      2       1.000          0.723                          0.277

  Total Charge                                                             0.000
 !-----------------------------------------------------------------------------!

  Trace(PS):                                   16.0000000000
  Electronic density on regular grids:        -15.9999960152        0.0000039848
  Core density on regular grids:               16.0000001072        0.0000001072
  Total charge density on r-space grids:        0.0000040920
  Total charge density g-space grids:           0.0000040920


 ENERGY| Total FORCE_EVAL ( QS ) energy (a.u.):              -34.337060809605120


 Centre of mass motion (COM):                            x =        0.0000604847
                                                         y =       -0.0000552712
                                                         z =       -0.0000715706

 *******************************************************************************
 ENSEMBLE TYPE                =                                            NPT_F
 STEP NUMBER                  =                                               10
 TIME [fs]                    =                                         5.000000
 CONSERVED QUANTITY [hartree] =                              -0.343240780538E+02

                                              INSTANTANEOUS             AVERAGES
 CPU TIME [s]                 =                        0.91                 0.94
 ENERGY DRIFT PER ATOM [K]    =         -0.158190851139E+01   0.257538257925E+00
 POTENTIAL ENERGY[hartree]    =         -0.343370608096E+02  -0.343359904243E+02
 KINETIC ENERGY [hartree]     =          0.747853960439E-02   0.662154647534E-02
 TEMPERATURE [K]              =                     314.871              278.789
 PRESSURE [bar]               =          0.931695792434E+04   0.585019807944E+04
 BAROSTAT TEMP[K]             =          0.317080554687E+03   0.305464659175E+03
 VOLUME[bohr^3]               =          0.146416859876E+04   0.146118312675E+04
 CELL LNTHS[bohr]             =    0.1133094E+02   0.1138103E+02   0.1135411E+02
 AVE. CELL LNTHS[bohr]        =    0.1133410E+02   0.1136167E+02   0.1134694E+02
 CELL ANGLS[deg]              =    0.9029524E+02   0.9019465E+02   0.9012964E+02
 AVE. CELL ANGLS[deg]         =    0.9016215E+02   0.9010570E+02   0.9007138E+02
 *******************************************************************************


 -------------------------------------------------------------------------------
 -                                                                             -
 -                                DBCSR STATISTICS                             -
 -                                                                             -
 -------------------------------------------------------------------------------
 COUNTER                                      CPU                  ACC      ACC%
 number of processed stacks                   512                    0       0.0
 matmuls inhomo. stacks                         0                    0       0.0
 matmuls total                               3048                    0       0.0
 flops   5 x    8 x    5                   153600                    0       0.0
 flops  13 x    8 x    5                   199680                    0       0.0
 flops   5 x    8 x   13                   199680                    0       0.0
 flops  13 x    8 x   13                   259584                    0       0.0
 flops   5 x    5 x    8                   416000                    0       0.0
 flops  13 x    5 x    8                   432640                    0       0.0
 flops   5 x   13 x    8                   432640                    0       0.0
 flops  13 x   13 x    8                   843648                    0       0.0
 flops total                              2937472                    0       0.0
 marketing flops                          4333568
 -------------------------------------------------------------------------------

 -------------------------------------------------------------------------------
 ----                             MULTIGRID INFO                            ----
 -------------------------------------------------------------------------------
 count for grid        1:           1502          cutoff [a.u.]          100.00
 count for grid        2:           1274          cutoff [a.u.]           33.33
 count for grid        3:           1360          cutoff [a.u.]           11.11
 count for grid        4:            231          cutoff [a.u.]            3.70
 total gridlevel count  :           4367

 -------------------------------------------------------------------------------
 -                                                                             -
 -                         MESSAGE PASSING PERFORMANCE                         -
 -                                                                             -
 -------------------------------------------------------------------------------

 ROUTINE             CALLS  TOT TIME [s]  AVE VOLUME [Bytes]  PERFORMANCE [MB/s]
 MP_Group               45         0.000
 MP_Bcast              111         0.000                  5.                1.21
 MP_Allreduce         1719         0.001                 30.               57.97
 MP_Sync                44         0.000
 MP_Alltoall          2559         0.001               3665.             7421.41
 MP_Wait              3072         0.001
 MP_ISend             1024         0.001               4431.             3369.95
 MP_IRecv             1024         0.000               4431.            10900.56
 MP_Memory            2976         0.001
 -------------------------------------------------------------------------------


 -------------------------------------------------------------------------------
 -                                                                             -
 -                           R E F E R E N C E S                               -
 -                                                                             -
 -------------------------------------------------------------------------------
 
 CP2K version 2.6.2, the CP2K developers group (2015).
 CP2K is freely available from http://www.cp2k.org/ .

 Borstnik, U; VandeVondele, J; Weber, V; Hutter, J. 
 PARALLEL COMPUTING, 40 (5-6), 47-58 (2014). 
 Sparse matrix multiplication: The distributed block-compressed sparse
 row library.
 http://dx.doi.org/10.1016/j.parco.2014.03.012


 Hutter, J; Iannuzzi, M; Schiffmann, F; VandeVondele, J. 
 WILEY INTERDISCIPLINARY REVIEWS-COMPUTATIONAL MOLECULAR SCIENCE, 4 (1), 15-25 (2014). 
 CP2K: atomistic simulations of condensed matter systems.
 http://dx.doi.org/10.1002/wcms.1159


 Krack, M. 
 THEORETICAL CHEMISTRY ACCOUNTS, 114 (1-3), 145-152 (2005). 
 Pseudopotentials for H to Kr optimized for gradient-corrected
 exchange-correlation functionals.
 http://dx.doi.org/10.1007/s00214-005-0655-y


 VandeVondele, J; Krack, M; Mohamed, F; Parrinello, M; Chassaing, T;
 Hutter, J. COMPUTER PHYSICS COMMUNICATIONS, 167 (2), 103-128 (2005). 
 QUICKSTEP: Fast and accurate density functional calculations using a
 mixed Gaussian and plane waves approach.
 http://dx.doi.org/10.1016/j.cpc.2004.12.014


 Frigo, M; Johnson, SG. 
 PROCEEDINGS OF THE IEEE, 93 (2), 216-231 (2005). 
 The design and implementation of FFTW3.
 http://dx.doi.org/10.1109/JPROC.2004.840301


 Hartwigsen, C; Goedecker, S; Hutter, J. 
 PHYSICAL REVIEW B, 58 (7), 3641-3662 (1998). 
 Relativistic separable dual-space Gaussian pseudopotentials from H to Rn.
 http://dx.doi.org/10.1103/PhysRevB.58.3641


 Lippert, G; Hutter, J; Parrinello, M. 
 MOLECULAR PHYSICS, 92 (3), 477-487 (1997). 
 A hybrid Gaussian and plane wave density functional scheme.
 http://dx.doi.org/10.1080/002689797170220


 Goedecker, S; Teter, M; Hutter, J. 
 PHYSICAL REVIEW B, 54 (3), 1703-1710 (1996). 
 Separable dual-space Gaussian pseudopotentials.
 http://dx.doi.org/10.1103/PhysRevB.54.1703


 NOSE, S. JOURNAL OF CHEMICAL PHYSICS, 81 (1), 511-519 (1984). 
 A UNIFIED FORMULATION OF THE CONSTANT TEMPERATURE MOLECULAR-DYNAMICS
 METHODS.
 http://dx.doi.org/10.1063/1.447334


 NOSE, S. MOLECULAR PHYSICS, 52 (2), 255-268 (1984). 
 A MOLECULAR-DYNAMICS METHOD FOR SIMULATIONS IN THE CANONICAL ENSEMBLE.
 http://dx.doi.org/10.1080/00268978400101201


 -------------------------------------------------------------------------------
 -                                                                             -
 -                                T I M I N G                                  -
 -                                                                             -
 -------------------------------------------------------------------------------
 SUBROUTINE                       CALLS  ASD         SELF TIME        TOTAL TIME
                                MAXIMUM       AVERAGE  MAXIMUM  AVERAGE  MAXIMUM
 CP2K                                 1  1.0    0.003    0.003    9.446    9.446
 qs_mol_dyn_low                       1  2.0    0.002    0.002    9.373    9.373
 qs_forces                           11  3.9    0.000    0.000    9.353    9.353
 velocity_verlet                     10  3.0    0.001    0.001    8.512    8.512
 qs_energies_scf                     11  4.9    0.000    0.000    7.922    7.922
 scf_env_do_scf                      11  5.9    0.000    0.000    7.164    7.164
 scf_env_do_scf_inner_loop           83  6.9    0.005    0.005    7.163    7.163
 rebuild_ks_matrix                   94  8.5    0.000    0.000    4.670    4.670
 qs_ks_build_kohn_sham_matrix        94  9.5    0.009    0.009    4.670    4.670
 qs_ks_update_qs_env                 83  7.9    0.001    0.001    3.830    3.830
 qs_rho_update_rho                   94  8.0    0.000    0.000    3.660    3.660
 calculate_rho_elec                  94  9.0    2.621    2.621    3.660    3.660
 sum_up_and_integrate                94 10.5    0.017    0.017    3.255    3.255
 integrate_v_rspace                  94 11.5    2.647    2.647    3.238    3.238
 fft_wrap_pw1pw2                    951 11.9    0.005    0.005    1.862    1.862
 fft_wrap_pw1pw2_100                387 12.4    0.109    0.109    1.618    1.618
 fft3d_s                            952 13.9    1.302    1.302    1.320    1.320
 density_rs2pw                       94 10.0    0.001    0.001    1.024    1.024
 qs_ks_update_qs_env_forces          11  4.9    0.000    0.000    0.843    0.843
 potential_pw2rs                     94 12.5    0.003    0.003    0.584    0.584
 qs_env_rebuild_pw_env               23  4.9    0.000    0.000    0.557    0.557
 pw_env_rebuild                      11  6.0    0.002    0.002    0.557    0.557
 qs_vxc_create                       94 10.5    0.001    0.001    0.529    0.529
 xc_vxc_pw_create                    94 11.5    0.078    0.078    0.528    0.528
 pw_grid_setup                       44  7.0    0.019    0.019    0.515    0.515
 init_scf_run                        11  5.9    0.000    0.000    0.490    0.490
 scf_env_initial_rho_setup           11  6.9    0.000    0.000    0.487    0.487
 pw_grid_sort                        44  8.0    0.201    0.201    0.458    0.458
 xc_rho_set_and_dset_create          94 12.5    0.001    0.001    0.449    0.449
 wfi_extrapolate                     11  7.9    0.000    0.000    0.445    0.445
 xc_functional_eval                  94 13.5    0.421    0.421    0.421    0.421
 pw_poisson_solve                    94 10.5    0.280    0.280    0.395    0.395
 sort_shells                         44  9.0    0.257    0.257    0.257    0.257
 pw_gather_s                        481 13.4    0.227    0.227    0.227    0.227
 fft_wrap_pw1pw2_40                 188 13.2    0.009    0.009    0.205    0.205
 pw_copy                            785 12.5    0.204    0.204    0.204    0.204
 pw_scatter_s                       470 14.4    0.193    0.193    0.193    0.193
 -------------------------------------------------------------------------------

  **** **** ******  **  PROGRAM ENDED AT                 2016-06-13 12:07:32.232
 ***** ** ***  *** **   PROGRAM RAN ON                                 lenovo700
 **    ****   ******    PROGRAM RAN BY                                     lauri
 ***** **    ** ** **   PROGRAM PROCESS ID                                 30558
  **** **  *******  **  PROGRAM STOPPED IN /home/lauri/Dropbox/nomad-dev/nomad-l
                                           ab-base/parsers/cp2k/test/unittests/c
                                           p2k_2.6.2/md/npt
