 DBCSR| Multiplication driver                                                SMM
 DBCSR| Multrec recursion limit                                              512
 DBCSR| Multiplication stack size                                           1000
 DBCSR| Multiplication size stacks                                             3
 DBCSR| Use subcommunicators                                                   T
 DBCSR| Use MPI combined types                                                 F
 DBCSR| Use MPI memory allocation                                              T
 DBCSR| Use Communication thread                                               T
 DBCSR| Communication thread load                                             87


  **** **** ******  **  PROGRAM STARTED AT               2016-06-06 09:30:56.770
 ***** ** ***  *** **   PROGRAM STARTED ON                   lauri-Lenovo-Z50-70
 **    ****   ******    PROGRAM STARTED BY                                 lauri
 ***** **    ** ** **   PROGRAM PROCESS ID                                  5924
  **** **  *******  **  PROGRAM STARTED IN /home/lauri/Dropbox/nomad-dev/nomad-l
                                           ab-base/parsers/cp2k/test/unittests/c
                                           p2k_2.6.2/geo_opt/each

 CP2K| version string:                                        CP2K version 2.6.2
 CP2K| source code revision number:                                    svn:15893
 CP2K| is freely available from                             http://www.cp2k.org/
 CP2K| Program compiled at                           ke 4.11.2015 08.48.42 +0200
 CP2K| Program compiled on                                   lauri-Lenovo-Z50-70
 CP2K| Program compiled for                          Linux-x86-64-gfortran_basic
 CP2K| Input file name                                               geo_opt.inp

 GLOBAL| Force Environment number                                              1
 GLOBAL| Basis set file name                                     ../../BASIS_SET
 GLOBAL| Geminal file name                                         BASIS_GEMINAL
 GLOBAL| Potential file name                                ../../GTH_POTENTIALS
 GLOBAL| MM Potential file name                                     MM_POTENTIAL
 GLOBAL| Coordinate file name                                      __STD_INPUT__
 GLOBAL| Method name                                                        CP2K
 GLOBAL| Project name                                                        H2O
 GLOBAL| Preferred FFT library                                             FFTW3
 GLOBAL| Preferred diagonalization lib.                                       SL
 GLOBAL| Run type                                                        GEO_OPT
 GLOBAL| All-to-all communication in single precision                          F
 GLOBAL| FFTs using library dependent lengths                                  F
 GLOBAL| Global print level                                               MEDIUM
 GLOBAL| Total number of message passing processes                             1
 GLOBAL| Number of threads for this process                                    1
 GLOBAL| This output is from process                                           0

 MEMORY| system memory details [Kb]
 MEMORY|                        rank 0           min           max       average
 MEMORY| MemTotal              8070360       8070360       8070360       8070360
 MEMORY| MemFree               5048700       5048700       5048700       5048700
 MEMORY| Buffers                176544        176544        176544        176544
 MEMORY| Cached                1364284       1364284       1364284       1364284
 MEMORY| Slab                   102752        102752        102752        102752
 MEMORY| SReclaimable            68712         68712         68712         68712
 MEMORY| MemLikelyFree         6658240       6658240       6658240       6658240


 *** Fundamental physical constants (SI units) ***

 *** Literature: B. J. Mohr and B. N. Taylor,
 ***             CODATA recommended values of the fundamental physical
 ***             constants: 2006, Web Version 5.1
 ***             http://physics.nist.gov/constants

 Speed of light in vacuum [m/s]                             2.99792458000000E+08
 Magnetic constant or permeability of vacuum [N/A**2]       1.25663706143592E-06
 Electric constant or permittivity of vacuum [F/m]          8.85418781762039E-12
 Planck constant (h) [J*s]                                  6.62606896000000E-34
 Planck constant (h-bar) [J*s]                              1.05457162825177E-34
 Elementary charge [C]                                      1.60217648700000E-19
 Electron mass [kg]                                         9.10938215000000E-31
 Electron g factor [ ]                                     -2.00231930436220E+00
 Proton mass [kg]                                           1.67262163700000E-27
 Fine-structure constant                                    7.29735253760000E-03
 Rydberg constant [1/m]                                     1.09737315685270E+07
 Avogadro constant [1/mol]                                  6.02214179000000E+23
 Boltzmann constant [J/K]                                   1.38065040000000E-23
 Atomic mass unit [kg]                                      1.66053878200000E-27
 Bohr radius [m]                                            5.29177208590000E-11

 *** Conversion factors ***

 [u] -> [a.u.]                                              1.82288848426455E+03
 [Angstrom] -> [Bohr] = [a.u.]                              1.88972613288564E+00
 [a.u.] = [Bohr] -> [Angstrom]                              5.29177208590000E-01
 [a.u.] -> [s]                                              2.41888432650478E-17
 [a.u.] -> [fs]                                             2.41888432650478E-02
 [a.u.] -> [J]                                              4.35974393937059E-18
 [a.u.] -> [N]                                              8.23872205491840E-08
 [a.u.] -> [K]                                              3.15774647902944E+05
 [a.u.] -> [kJ/mol]                                         2.62549961709828E+03
 [a.u.] -> [kcal/mol]                                       6.27509468713739E+02
 [a.u.] -> [Pa]                                             2.94210107994716E+13
 [a.u.] -> [bar]                                            2.94210107994716E+08
 [a.u.] -> [atm]                                            2.90362800883016E+08
 [a.u.] -> [eV]                                             2.72113838565563E+01
 [a.u.] -> [Hz]                                             6.57968392072181E+15
 [a.u.] -> [1/cm] (wave numbers)                            2.19474631370540E+05
 [a.u./Bohr**2] -> [1/cm]                                   5.14048714338585E+03
 

 CELL_TOP| Volume [angstrom^3]:                                         1912.997
 CELL_TOP| Vector a [angstrom    12.414     0.000     0.000    |a| =      12.414
 CELL_TOP| Vector b [angstrom     0.000    12.414     0.000    |b| =      12.414
 CELL_TOP| Vector c [angstrom     0.000     0.000    12.414    |c| =      12.414
 CELL_TOP| Angle (b,c), alpha [degree]:                                   90.000
 CELL_TOP| Angle (a,c), beta  [degree]:                                   90.000
 CELL_TOP| Angle (a,b), gamma [degree]:                                   90.000
 CELL_TOP| Numerically orthorhombic:                                         YES

 GENERATE|  Preliminary Number of Bonds generated:                             0
 GENERATE|  Achieved consistency in connectivity generation.

 CELL| Volume [angstrom^3]:                                             1912.997
 CELL| Vector a [angstrom]:      12.414     0.000     0.000    |a| =      12.414
 CELL| Vector b [angstrom]:       0.000    12.414     0.000    |b| =      12.414
 CELL| Vector c [angstrom]:       0.000     0.000    12.414    |c| =      12.414
 CELL| Angle (b,c), alpha [degree]:                                       90.000
 CELL| Angle (a,c), beta  [degree]:                                       90.000
 CELL| Angle (a,b), gamma [degree]:                                       90.000
 CELL| Numerically orthorhombic:                                             YES

 CELL_REF| Volume [angstrom^3]:                                         1912.997
 CELL_REF| Vector a [angstrom    12.414     0.000     0.000    |a| =      12.414
 CELL_REF| Vector b [angstrom     0.000    12.414     0.000    |b| =      12.414
 CELL_REF| Vector c [angstrom     0.000     0.000    12.414    |c| =      12.414
 CELL_REF| Angle (b,c), alpha [degree]:                                   90.000
 CELL_REF| Angle (a,c), beta  [degree]:                                   90.000
 CELL_REF| Angle (a,b), gamma [degree]:                                   90.000
 CELL_REF| Numerically orthorhombic:                                         YES

 *******************************************************************************
 *******************************************************************************
 **                                                                           **
 **     #####                         ##              ##                      **
 **    ##   ##            ##          ##              ##                      **
 **   ##     ##                       ##            ######                    **
 **   ##     ##  ##   ##  ##   #####  ##  ##   ####   ##    #####    #####    **
 **   ##     ##  ##   ##  ##  ##      ## ##   ##      ##   ##   ##  ##   ##   **
 **   ##  ## ##  ##   ##  ##  ##      ####     ###    ##   ######   ######    **
 **    ##  ###   ##   ##  ##  ##      ## ##      ##   ##   ##       ##        **
 **     #######   #####   ##   #####  ##  ##  ####    ##    #####   ##        **
 **           ##                                                    ##        **
 **                                                                           **
 **                                                ... make the atoms dance   **
 **                                                                           **
 **            Copyright (C) by CP2K Developers Group (2000 - 2014)           **
 **                                                                           **
 *******************************************************************************

 DFT| Spin restricted Kohn-Sham (RKS) calculation                            RKS
 DFT| Multiplicity                                                             1
 DFT| Number of spin states                                                    1
 DFT| Charge                                                                   0
 DFT| Self-interaction correction (SIC)                                       NO
 DFT| Cutoffs: density                                              1.000000E-10
 DFT|          gradient                                             1.000000E-10
 DFT|          tau                                                  1.000000E-10
 DFT|          cutoff_smoothing_range                               0.000000E+00
 DFT| XC density smoothing                                                  NONE
 DFT| XC derivatives                                                          PW
 FUNCTIONAL| ROUTINE=NEW
 FUNCTIONAL| PADE:
 FUNCTIONAL| S. Goedecker, M. Teter and J. Hutter, Phys. Rev. B 54, 1703 (1996)

 QS| Method:                                                                 GPW
 QS| Density plane wave grid type                        NON-SPHERICAL FULLSPACE
 QS| Number of grid levels:                                                    4
 QS| Density cutoff [a.u.]:                                                 50.0
 QS| Multi grid cutoff [a.u.]: 1) grid level                                50.0
 QS|                           2) grid level                                16.7
 QS|                           3) grid level                                 5.6
 QS|                           4) grid level                                 1.9
 QS| Grid level progression factor:                                          3.0
 QS| Relative density cutoff [a.u.]:                                        15.0
 QS| Consistent realspace mapping and integration 
 QS| Interaction thresholds: eps_pgf_orb:                                3.2E-04
 QS|                         eps_filter_matrix:                          0.0E+00
 QS|                         eps_core_charge:                            1.0E-09
 QS|                         eps_rho_gspace:                             1.0E-07
 QS|                         eps_rho_rspace:                             1.0E-07
 QS|                         eps_gvg_rspace:                             3.2E-04
 QS|                         eps_ppl:                                    1.0E-02
 QS|                         eps_ppnl:                                   3.2E-06


 ATOMIC KIND INFORMATION

  1. Atomic kind: O                                     Number of atoms:       1

     Orbital Basis Set                                             DZVP-GTH-PADE

       Number of orbital shell sets:                                           2
       Number of orbital shells:                                               5
       Number of primitive Cartesian functions:                                5
       Number of Cartesian basis functions:                                   14
       Number of spherical basis functions:                                   13
       Norm type:                                                              2

       Normalised Cartesian orbitals:

                        Set   Shell   Orbital            Exponent    Coefficient

                          1       1    2s                8.304404       0.526521
                                                         2.457945      -0.055011
                                                         0.759736      -0.404341
                                                         0.213639      -0.086026

                          1       2    3s                8.304404       0.000000
                                                         2.457945       0.000000
                                                         0.759736       0.000000
                                                         0.213639       0.223960

                          1       3    3px               8.304404      -2.000758
                                                         2.457945      -1.321077
                                                         0.759736      -0.480331
                                                         0.213639      -0.078647
                          1       3    3py               8.304404      -2.000758
                                                         2.457945      -1.321077
                                                         0.759736      -0.480331
                                                         0.213639      -0.078647
                          1       3    3pz               8.304404      -2.000758
                                                         2.457945      -1.321077
                                                         0.759736      -0.480331
                                                         0.213639      -0.078647

                          1       4    4px               8.304404       0.000000
                                                         2.457945       0.000000
                                                         0.759736       0.000000
                                                         0.213639       0.207033
                          1       4    4py               8.304404       0.000000
                                                         2.457945       0.000000
                                                         0.759736       0.000000
                                                         0.213639       0.207033
                          1       4    4pz               8.304404       0.000000
                                                         2.457945       0.000000
                                                         0.759736       0.000000
                                                         0.213639       0.207033

                          2       1    3dx2              0.800000       1.113825
                          2       1    3dxy              0.800000       1.929201
                          2       1    3dxz              0.800000       1.929201
                          2       1    3dy2              0.800000       1.113825
                          2       1    3dyz              0.800000       1.929201
                          2       1    3dz2              0.800000       1.113825

     Potential information for                                       GTH-PADE-q6

       Description:                       Goedecker-Teter-Hutter pseudopotential
                                           Goedecker et al., PRB 54, 1703 (1996)
                                          Hartwigsen et al., PRB 58, 3641 (1998)
                                                      Krack, TCA 114, 145 (2005)

       Gaussian exponent of the core charge distribution:               8.154466
       Electronic configuration (s p d ...):                               2   4

       Parameters of the local part of the GTH pseudopotential:

                          rloc        C1          C2          C3          C4
                        0.247621  -16.580318    2.395701

       Parameters of the non-local part of the GTH pseudopotential:

                   l      r(l)      h(i,j,l)

                   0    0.221786   18.266917
                   1    0.256829

  2. Atomic kind: H                                     Number of atoms:       2

     Orbital Basis Set                                             DZVP-GTH-PADE

       Number of orbital shell sets:                                           2
       Number of orbital shells:                                               3
       Number of primitive Cartesian functions:                                5
       Number of Cartesian basis functions:                                    5
       Number of spherical basis functions:                                    5
       Norm type:                                                              2

       Normalised Cartesian orbitals:

                        Set   Shell   Orbital            Exponent    Coefficient

                          1       1    1s                8.374435      -0.083834
                                                         1.805868      -0.155208
                                                         0.485253      -0.104875
                                                         0.165824      -0.128813

                          1       2    2s                8.374435       0.000000
                                                         1.805868       0.000000
                                                         0.485253       0.000000
                                                         0.165824       0.185202

                          2       1    2px               0.700000       0.912668
                          2       1    2py               0.700000       0.912668
                          2       1    2pz               0.700000       0.912668

     Potential information for                                       GTH-PADE-q1

       Description:                       Goedecker-Teter-Hutter pseudopotential
                                           Goedecker et al., PRB 54, 1703 (1996)
                                          Hartwigsen et al., PRB 58, 3641 (1998)
                                                      Krack, TCA 114, 145 (2005)

       Gaussian exponent of the core charge distribution:              12.500000
       Electronic configuration (s p d ...):                                   1

       Parameters of the local part of the GTH pseudopotential:

                          rloc        C1          C2          C3          C4
                        0.200000   -4.180237    0.725075


 MOLECULE KIND INFORMATION


 All atoms are their own molecule, skipping detailed information


 TOTAL NUMBERS AND MAXIMUM NUMBERS

  Total number of            - Atomic kinds:                                   2
                             - Atoms:                                          3
                             - Shell sets:                                     6
                             - Shells:                                        11
                             - Primitive Cartesian functions:                 15
                             - Cartesian basis functions:                     24
                             - Spherical basis functions:                     23

  Maximum angular momentum of- Orbital basis functions:                        2
                             - Local part of the GTH pseudopotential:          2
                             - Non-local part of the GTH pseudopotential:      0


 MODULE QUICKSTEP:  ATOMIC COORDINATES IN angstrom

  Atom  Kind  Element       X           Y           Z          Z(eff)       Mass

       1     1 O    8   12.235322    1.376642   10.869880      6.00      15.9994
       2     2 H    1   12.415139    2.233125   11.257611      1.00       1.0079
       3     2 H    1   11.922476    1.573799    9.986994      1.00       1.0079




 SCF PARAMETERS         Density guess:                                    ATOMIC
                        --------------------------------------------------------
                        max_scf:                                             200
                        max_scf_history:                                       0
                        max_diis:                                              4
                        --------------------------------------------------------
                        eps_scf:                                        1.00E-05
                        eps_scf_history:                                0.00E+00
                        eps_diis:                                       1.00E-01
                        eps_eigval:                                     1.00E-05
                        --------------------------------------------------------
                        level_shift [a.u.]:                                 0.00
                        --------------------------------------------------------
                        Mixing method:                              PULAY_MIXING
                                                charge density mixing in g-space
                        --------------------------------------------------------
                        No outer SCF

 PW_GRID| Information for grid number                                          1
 PW_GRID| Cutoff [a.u.]                                                     50.0
 PW_GRID| spherical cutoff:                                                   NO
 PW_GRID|   Bounds   1            -37      37                Points:          75
 PW_GRID|   Bounds   2            -37      37                Points:          75
 PW_GRID|   Bounds   3            -37      37                Points:          75
 PW_GRID| Volume element (a.u.^3)  0.3060E-01     Volume (a.u.^3)     12909.5421
 PW_GRID| Grid span                                                    FULLSPACE

 PW_GRID| Information for grid number                                          2
 PW_GRID| Cutoff [a.u.]                                                     16.7
 PW_GRID| spherical cutoff:                                                   NO
 PW_GRID|   Bounds   1            -22      22                Points:          45
 PW_GRID|   Bounds   2            -22      22                Points:          45
 PW_GRID|   Bounds   3            -22      22                Points:          45
 PW_GRID| Volume element (a.u.^3)  0.1417         Volume (a.u.^3)     12909.5421
 PW_GRID| Grid span                                                    FULLSPACE

 PW_GRID| Information for grid number                                          3
 PW_GRID| Cutoff [a.u.]                                                      5.6
 PW_GRID| spherical cutoff:                                                   NO
 PW_GRID|   Bounds   1            -12      12                Points:          25
 PW_GRID|   Bounds   2            -12      12                Points:          25
 PW_GRID|   Bounds   3            -12      12                Points:          25
 PW_GRID| Volume element (a.u.^3)  0.8262         Volume (a.u.^3)     12909.5421
 PW_GRID| Grid span                                                    FULLSPACE

 PW_GRID| Information for grid number                                          4
 PW_GRID| Cutoff [a.u.]                                                      1.9
 PW_GRID| spherical cutoff:                                                   NO
 PW_GRID|   Bounds   1             -7       7                Points:          15
 PW_GRID|   Bounds   2             -7       7                Points:          15
 PW_GRID|   Bounds   3             -7       7                Points:          15
 PW_GRID| Volume element (a.u.^3)   3.825         Volume (a.u.^3)     12909.5421
 PW_GRID| Grid span                                                    FULLSPACE

 POISSON| Solver                                                        PERIODIC
 POISSON| Periodicity                                                        XYZ

 RS_GRID| Information for grid number                                          1
 RS_GRID|   Bounds   1            -37      37                Points:          75
 RS_GRID|   Bounds   2            -37      37                Points:          75
 RS_GRID|   Bounds   3            -37      37                Points:          75

 RS_GRID| Information for grid number                                          2
 RS_GRID|   Bounds   1            -22      22                Points:          45
 RS_GRID|   Bounds   2            -22      22                Points:          45
 RS_GRID|   Bounds   3            -22      22                Points:          45

 RS_GRID| Information for grid number                                          3
 RS_GRID|   Bounds   1            -12      12                Points:          25
 RS_GRID|   Bounds   2            -12      12                Points:          25
 RS_GRID|   Bounds   3            -12      12                Points:          25

 RS_GRID| Information for grid number                                          4
 RS_GRID|   Bounds   1             -7       7                Points:          15
 RS_GRID|   Bounds   2             -7       7                Points:          15
 RS_GRID|   Bounds   3             -7       7                Points:          15

 DISTRIBUTION OF THE PARTICLES (ROWS)
              Process row      Number of particles         Number of matrix rows
                        0                        3                            -1
                      Sum                        3                            -1

 DISTRIBUTION OF THE PARTICLES (COLUMNS)
              Process col      Number of particles      Number of matrix columns
                        0                        3                            -1
                      Sum                        3                            -1

 *******************************************************************************
 ***                     STARTING GEOMETRY OPTIMIZATION                      ***
 ***                           CONJUGATE GRADIENTS                           ***
 *******************************************************************************

 DISTRIBUTION OF THE NEIGHBOR LISTS
              Total number of particle pairs:                                  6
              Total number of matrix elements:                               374
              Average number of particle pairs:                                6
              Maximum number of particle pairs:                                6
              Average number of matrix element:                              374
              Maximum number of matrix elements:                             374


 DISTRIBUTION OF THE OVERLAP MATRIX
              Number  of non-zero blocks:                                      6
              Percentage non-zero blocks:                                 100.00
              Average number of blocks per CPU:                                6
              Maximum number of blocks per CPU:                                6
              Average number of matrix elements per CPU:                     384
              Maximum number of matrix elements per CPU:                     384

 Number of electrons:                                                          8
 Number of occupied orbitals:                                                  4
 Number of molecular orbitals:                                                 4

 Number of orbital functions:                                                 23
 Number of independent orbital functions:                                     23

 Extrapolation method: initial_guess

 Atomic guess: The first density matrix is obtained in terms of atomic orbitals
               and electronic configurations assigned to each atomic kind

 Guess for atomic kind: O

 Electronic structure
    Total number of core electrons                                          2.00
    Total number of valence electrons                                       6.00
    Total number of electrons                                               8.00
    Multiplicity                                                   not specified
    S   [  2.00] 2.00
    P      4.00


 *******************************************************************************
                  Iteration          Convergence                     Energy [au]
 *******************************************************************************
                          1         1.68085                     -14.857481728656
                          2         2.15642                     -14.936142370053
                          3        0.890654E-01                 -15.701381433081
                          4        0.300038E-02                 -15.702655347039
                          5        0.124050E-02                 -15.702656532555
                          6        0.771851E-03                 -15.702656682204
                          7        0.254544E-04                 -15.702656776553
                          8        0.154783E-06                 -15.702656776662

 Energy components [Hartree]           Total Energy ::          -15.702656776662
                                        Band Energy ::           -2.982159100248
                                     Kinetic Energy ::           11.942300538966
                                   Potential Energy ::          -27.644957315628
                                      Virial (-V/T) ::            2.314877039430
                                        Core Energy ::          -26.240316547129
                                          XC Energy ::           -3.168822356033
                                     Coulomb Energy ::           13.706482126500
                       Total Pseudopotential Energy ::          -38.217120617695
                       Local Pseudopotential Energy ::          -39.522374145046
                    Nonlocal Pseudopotential Energy ::            1.305253527351
                                        Confinement ::            0.345035316001

 Orbital energies  State     L     Occupation   Energy[a.u.]          Energy[eV]

                       1     0          2.000      -0.854038          -23.239548

                       1     1          4.000      -0.318521           -8.667395


 Guess for atomic kind: H

 Electronic structure
    Total number of core electrons                                          0.00
    Total number of valence electrons                                       1.00
    Total number of electrons                                               1.00
    Multiplicity                                                   not specified
    S      1.00


 *******************************************************************************
                  Iteration          Convergence                     Energy [au]
 *******************************************************************************
                          1        0.316011E-02                  -0.422390558413
                          2        0.333152E-03                  -0.422399635530
                          3        0.114302E-06                  -0.422399737491

 Energy components [Hartree]           Total Energy ::           -0.422399737491
                                        Band Energy ::           -0.193019372217
                                     Kinetic Energy ::            0.475009752129
                                   Potential Energy ::           -0.897409489620
                                      Virial (-V/T) ::            1.889244348347
                                        Core Energy ::           -0.478923189740
                                          XC Energy ::           -0.248206713182
                                     Coulomb Energy ::            0.304730165431
                       Total Pseudopotential Energy ::           -0.971460622099
                       Local Pseudopotential Energy ::           -0.971460622099
                    Nonlocal Pseudopotential Energy ::            0.000000000000
                                        Confinement ::            0.175276802303

 Orbital energies  State     L     Occupation   Energy[a.u.]          Energy[eV]

                       1     0          1.000      -0.193019           -5.252324

 Re-scaling the density matrix to get the right number of electrons
                  # Electrons              Trace(P)               Scaling factor
                            8                 8.000                        1.000


 SCF WAVEFUNCTION OPTIMIZATION

  Step     Update method      Time    Convergence         Total energy    Change
  ------------------------------------------------------------------------------

  Trace(PS):                                    8.0000000000
  Electronic density on regular grids:         -8.0000036792       -0.0000036792
  Core density on regular grids:                8.0002817176        0.0002817176
  Total charge density on r-space grids:        0.0002780384
  Total charge density g-space grids:           0.0002780384

     1 NoMix/Diag. 0.50E+00    0.1     1.13047649       -17.0019631348 -1.70E+01

  Trace(PS):                                    8.0000000000
  Electronic density on regular grids:         -7.9998887767        0.0001112233
  Core density on regular grids:                8.0002817176        0.0002817176
  Total charge density on r-space grids:        0.0003929409
  Total charge density g-space grids:           0.0003929409

     2 Pulay/Diag. 0.50E+00    0.2     0.38473426       -15.9278802655  1.07E+00

  Trace(PS):                                    8.0000000000
  Electronic density on regular grids:         -7.9997670154        0.0002329846
  Core density on regular grids:                8.0002817176        0.0002817176
  Total charge density on r-space grids:        0.0005147022
  Total charge density g-space grids:           0.0005147022

     3 Pulay/Diag. 0.50E+00    0.2     0.07793383       -17.4323706972 -1.50E+00

  Trace(PS):                                    8.0000000000
  Electronic density on regular grids:         -7.9997731213        0.0002268787
  Core density on regular grids:                8.0002817176        0.0002817176
  Total charge density on r-space grids:        0.0005085963
  Total charge density g-space grids:           0.0005085963

     4 Pulay/Diag. 0.50E+00    0.2     0.00860113       -17.1491094344  2.83E-01

  Trace(PS):                                    8.0000000000
  Electronic density on regular grids:         -7.9997706989        0.0002293011
  Core density on regular grids:                8.0002817176        0.0002817176
  Total charge density on r-space grids:        0.0005110188
  Total charge density g-space grids:           0.0005110188

     5 Pulay/Diag. 0.50E+00    0.2     0.00397228       -17.1763539146 -2.72E-02

  Trace(PS):                                    8.0000000000
  Electronic density on regular grids:         -7.9997705264        0.0002294736
  Core density on regular grids:                8.0002817176        0.0002817176
  Total charge density on r-space grids:        0.0005111912
  Total charge density g-space grids:           0.0005111912

     6 Pulay/Diag. 0.50E+00    0.2     0.00118787       -17.1538069467  2.25E-02

  Trace(PS):                                    8.0000000000
  Electronic density on regular grids:         -7.9997700852        0.0002299148
  Core density on regular grids:                8.0002817176        0.0002817176
  Total charge density on r-space grids:        0.0005116324
  Total charge density g-space grids:           0.0005116324

     7 Pulay/Diag. 0.50E+00    0.2     0.00058182       -17.1500462631  3.76E-03

  Trace(PS):                                    8.0000000000
  Electronic density on regular grids:         -7.9997697568        0.0002302432
  Core density on regular grids:                8.0002817176        0.0002817176
  Total charge density on r-space grids:        0.0005119608
  Total charge density g-space grids:           0.0005119608

     8 Pulay/Diag. 0.50E+00    0.2     0.00051741       -17.1497234460  3.23E-04

  Trace(PS):                                    8.0000000000
  Electronic density on regular grids:         -7.9997696752        0.0002303248
  Core density on regular grids:                8.0002817176        0.0002817176
  Total charge density on r-space grids:        0.0005120424
  Total charge density g-space grids:           0.0005120424

     9 Pulay/Diag. 0.50E+00    0.2     0.00020949       -17.1488945472  8.29E-04

  Trace(PS):                                    8.0000000000
  Electronic density on regular grids:         -7.9997696145        0.0002303855
  Core density on regular grids:                8.0002817176        0.0002817176
  Total charge density on r-space grids:        0.0005121031
  Total charge density g-space grids:           0.0005121031

    10 Pulay/Diag. 0.50E+00    0.2     0.00007913       -17.1490319035 -1.37E-04

  Trace(PS):                                    8.0000000000
  Electronic density on regular grids:         -7.9997696054        0.0002303946
  Core density on regular grids:                8.0002817176        0.0002817176
  Total charge density on r-space grids:        0.0005121122
  Total charge density g-space grids:           0.0005121122

    11 Pulay/Diag. 0.50E+00    0.2     0.00003440       -17.1488486191  1.83E-04

  Trace(PS):                                    8.0000000000
  Electronic density on regular grids:         -7.9997695916        0.0002304084
  Core density on regular grids:                8.0002817176        0.0002817176
  Total charge density on r-space grids:        0.0005121260
  Total charge density g-space grids:           0.0005121260

    12 Pulay/Diag. 0.50E+00    0.2     0.00001646       -17.1488818860 -3.33E-05

  Trace(PS):                                    8.0000000000
  Electronic density on regular grids:         -7.9997695897        0.0002304103
  Core density on regular grids:                8.0002817176        0.0002817176
  Total charge density on r-space grids:        0.0005121279
  Total charge density g-space grids:           0.0005121279

    13 Pulay/Diag. 0.50E+00    0.2     0.00000459       -17.1488284649  5.34E-05

  *** SCF run converged in    13 steps ***


  Electronic density on regular grids:         -7.9997695897        0.0002304103
  Core density on regular grids:                8.0002817176        0.0002817176
  Total charge density on r-space grids:        0.0005121279
  Total charge density g-space grids:           0.0005121279

  Overlap energy of the core charge distribution:               0.00000008790619
  Self energy of the core charge distribution:                -43.83289054591484
  Core Hamiltonian energy:                                     12.86724943365228
  Hartree energy:                                              17.95658455742420
  Exchange-correlation energy:                                 -4.13977199794821

  Total energy:                                               -17.14882846488038


 MULLIKEN POPULATION ANALYSIS

 #  Atom  Element  Kind  Atomic population                Net charge
       1     O        1          6.650970                 -0.650970
       2     H        2          0.676279                  0.323721
       3     H        2          0.672752                  0.327248
 # Total charge                  8.000000                  0.000000


 !-----------------------------------------------------------------------------!
                           Hirschfeld Charges

  #Atom  Element  Kind  Ref Charge     Population                     Net charge
      1       O      1       6.000          6.557                         -0.557
      2       H      2       1.000          0.722                          0.278
      3       H      2       1.000          0.721                          0.279

  Total Charge                                                             0.000
 !-----------------------------------------------------------------------------!

  Trace(PS):                                    8.0000000000
  Electronic density on regular grids:         -7.9997695888        0.0002304112
  Core density on regular grids:                8.0002817176        0.0002817176
  Total charge density on r-space grids:        0.0005121288
  Total charge density g-space grids:           0.0005121288


 ENERGY| Total FORCE_EVAL ( QS ) energy (a.u.):              -17.148823763526391


 ATOMIC FORCES in [a.u.]

 # Atom   Kind   Element          X              Y              Z
      1      1      O           0.00000000     0.00000000     0.00000000
      2      2      H           0.01638779     0.02090816     0.02695247
      3      2      H           0.03136767    -0.00972636     0.16477492
 SUM OF ATOMIC FORCES           0.04775546     0.01118180     0.19172740     0.19790152

 STRESS TENSOR [GPa]

            X               Y               Z
  X      -1.50079594      0.00529169      0.03398662
  Y       0.00529169      0.92151135      0.01050992
  Z       0.03398662      0.01050992      0.39509842

  1/3 Trace(stress tensor):  -6.13953903E-02

  Det(stress tensor)      :  -5.47327242E-01


 EIGENVECTORS AND EIGENVALUES OF THE STRESS TENSOR

         -1.50141575      0.39549376      0.92173581

          0.99983746      0.01785996      0.00246607
         -0.00210598     -0.02015259      0.99979470
         -0.01790599      0.99963738      0.02011170

 --------  Informations at step =     0 ------------
  Optimization Method        =                   SD
  Total Energy               =       -17.1488237635
  Used time                  =                2.752
 ---------------------------------------------------

 --------------------------
 OPTIMIZATION STEP:      1
 --------------------------

 DISTRIBUTION OF THE NEIGHBOR LISTS
              Total number of particle pairs:                                  6
              Total number of matrix elements:                               374
              Average number of particle pairs:                                6
              Maximum number of particle pairs:                                6
              Average number of matrix element:                              374
              Maximum number of matrix elements:                             374


 DISTRIBUTION OF THE OVERLAP MATRIX
              Number  of non-zero blocks:                                      6
              Percentage non-zero blocks:                                 100.00
              Average number of blocks per CPU:                                6
              Maximum number of blocks per CPU:                                6
              Average number of matrix elements per CPU:                     384
              Maximum number of matrix elements per CPU:                     384

 Number of electrons:                                                          8
 Number of occupied orbitals:                                                  4
 Number of molecular orbitals:                                                 4

 Number of orbital functions:                                                 23
 Number of independent orbital functions:                                     23

 Parameters for the always stable predictor-corrector (ASPC) method:

  ASPC order: 0

  B(1) =   1.000000

 Extrapolation method: ASPC


 SCF WAVEFUNCTION OPTIMIZATION

  Step     Update method      Time    Convergence         Total energy    Change
  ------------------------------------------------------------------------------

  Trace(PS):                                    8.0000000000
  Electronic density on regular grids:         -7.9997695888        0.0002304112
  Core density on regular grids:                8.0002817176        0.0002817176
  Total charge density on r-space grids:        0.0005121288
  Total charge density g-space grids:           0.0005121288

     1 Pulay/Diag. 0.50E+00    0.1     0.00000347       -17.1488237635 -1.71E+01

  *** SCF run converged in     1 steps ***


  Electronic density on regular grids:         -7.9997695888        0.0002304112
  Core density on regular grids:                8.0002817176        0.0002817176
  Total charge density on r-space grids:        0.0005121288
  Total charge density g-space grids:           0.0005121288

  Overlap energy of the core charge distribution:               0.00000008790619
  Self energy of the core charge distribution:                -43.83289054591484
  Core Hamiltonian energy:                                     12.86725544193982
  Hartree energy:                                              17.95658438062815
  Exchange-correlation energy:                                 -4.13977312808572

  Total energy:                                               -17.14882376352639


 MULLIKEN POPULATION ANALYSIS

 #  Atom  Element  Kind  Atomic population                Net charge
       1     O        1          6.650964                 -0.650964
       2     H        2          0.676282                  0.323718
       3     H        2          0.672755                  0.327245
 # Total charge                  8.000000                 -0.000000


 !-----------------------------------------------------------------------------!
                           Hirschfeld Charges

  #Atom  Element  Kind  Ref Charge     Population                     Net charge
      1       O      1       6.000          6.557                         -0.557
      2       H      2       1.000          0.722                          0.278
      3       H      2       1.000          0.721                          0.279

  Total Charge                                                             0.000
 !-----------------------------------------------------------------------------!

 ENERGY| Total FORCE_EVAL ( QS ) energy (a.u.):              -17.148823763526394


 DISTRIBUTION OF THE NEIGHBOR LISTS
              Total number of particle pairs:                                  6
              Total number of matrix elements:                               374
              Average number of particle pairs:                                6
              Maximum number of particle pairs:                                6
              Average number of matrix element:                              374
              Maximum number of matrix elements:                             374


 DISTRIBUTION OF THE OVERLAP MATRIX
              Number  of non-zero blocks:                                      6
              Percentage non-zero blocks:                                 100.00
              Average number of blocks per CPU:                                6
              Maximum number of blocks per CPU:                                6
              Average number of matrix elements per CPU:                     384
              Maximum number of matrix elements per CPU:                     384

 Number of electrons:                                                          8
 Number of occupied orbitals:                                                  4
 Number of molecular orbitals:                                                 4

 Number of orbital functions:                                                 23
 Number of independent orbital functions:                                     23

 Parameters for the always stable predictor-corrector (ASPC) method:

  ASPC order: 0

  B(1) =   2.000000
  B(2) =  -1.000000

 Extrapolation method: ASPC


 SCF WAVEFUNCTION OPTIMIZATION

  Step     Update method      Time    Convergence         Total energy    Change
  ------------------------------------------------------------------------------

  Trace(PS):                                    8.0000000000
  Electronic density on regular grids:         -7.9997579383        0.0002420617
  Core density on regular grids:                8.0006281868        0.0006281868
  Total charge density on r-space grids:        0.0008702485
  Total charge density g-space grids:           0.0008702485

     1 Pulay/Diag. 0.50E+00    0.1     0.12145101       -17.1312295746 -1.71E+01

  Trace(PS):                                    8.0000000000
  Electronic density on regular grids:         -7.9997775900        0.0002224100
  Core density on regular grids:                8.0006281868        0.0006281868
  Total charge density on r-space grids:        0.0008505968
  Total charge density g-space grids:           0.0008505968

     2 Pulay/Diag. 0.50E+00    0.2     0.03175470       -17.0223034525  1.09E-01

  Trace(PS):                                    8.0000000000
  Electronic density on regular grids:         -7.9997961675        0.0002038325
  Core density on regular grids:                8.0006281868        0.0006281868
  Total charge density on r-space grids:        0.0008320193
  Total charge density g-space grids:           0.0008320193

     3 Pulay/Diag. 0.50E+00    0.2     0.01472258       -17.1492710110 -1.27E-01

  Trace(PS):                                    8.0000000000
  Electronic density on regular grids:         -7.9997952342        0.0002047658
  Core density on regular grids:                8.0006281868        0.0006281868
  Total charge density on r-space grids:        0.0008329526
  Total charge density g-space grids:           0.0008329526

     4 Pulay/Diag. 0.50E+00    0.2     0.00469377       -17.1207358040  2.85E-02

  Trace(PS):                                    8.0000000000
  Electronic density on regular grids:         -7.9997953768        0.0002046232
  Core density on regular grids:                8.0006281868        0.0006281868
  Total charge density on r-space grids:        0.0008328100
  Total charge density g-space grids:           0.0008328100

     5 Pulay/Diag. 0.50E+00    0.2     0.00051269       -17.1347756165 -1.40E-02

  Trace(PS):                                    8.0000000000
  Electronic density on regular grids:         -7.9997953599        0.0002046401
  Core density on regular grids:                8.0006281868        0.0006281868
  Total charge density on r-space grids:        0.0008328269
  Total charge density g-space grids:           0.0008328269

     6 Pulay/Diag. 0.50E+00    0.2     0.00016243       -17.1335791665  1.20E-03

  Trace(PS):                                    8.0000000000
  Electronic density on regular grids:         -7.9997953516        0.0002046484
  Core density on regular grids:                8.0006281868        0.0006281868
  Total charge density on r-space grids:        0.0008328352
  Total charge density g-space grids:           0.0008328352

     7 Pulay/Diag. 0.50E+00    0.2     0.00005727       -17.1332684376  3.11E-04

  Trace(PS):                                    8.0000000000
  Electronic density on regular grids:         -7.9997953491        0.0002046509
  Core density on regular grids:                8.0006281868        0.0006281868
  Total charge density on r-space grids:        0.0008328377
  Total charge density g-space grids:           0.0008328377

     8 Pulay/Diag. 0.50E+00    0.2     0.00002319       -17.1332230758  4.54E-05

  Trace(PS):                                    8.0000000000
  Electronic density on regular grids:         -7.9997953434        0.0002046566
  Core density on regular grids:                8.0006281868        0.0006281868
  Total charge density on r-space grids:        0.0008328434
  Total charge density g-space grids:           0.0008328434

     9 Pulay/Diag. 0.50E+00    0.2     0.00002007       -17.1332206431  2.43E-06

  Trace(PS):                                    8.0000000000
  Electronic density on regular grids:         -7.9997953425        0.0002046575
  Core density on regular grids:                8.0006281868        0.0006281868
  Total charge density on r-space grids:        0.0008328444
  Total charge density g-space grids:           0.0008328444

    10 Pulay/Diag. 0.50E+00    0.2     0.00000677       -17.1332137852  6.86E-06

  *** SCF run converged in    10 steps ***


  Electronic density on regular grids:         -7.9997953425        0.0002046575
  Core density on regular grids:                8.0006281868        0.0006281868
  Total charge density on r-space grids:        0.0008328444
  Total charge density g-space grids:           0.0008328444

  Overlap energy of the core charge distribution:               0.00000072922704
  Self energy of the core charge distribution:                -43.83289054591484
  Core Hamiltonian energy:                                     12.99254473955432
  Hartree energy:                                              17.87968575238002
  Exchange-correlation energy:                                 -4.17255446047381

  Total energy:                                               -17.13321378522726


 MULLIKEN POPULATION ANALYSIS

 #  Atom  Element  Kind  Atomic population                Net charge
       1     O        1          6.645414                 -0.645414
       2     H        2          0.680490                  0.319510
       3     H        2          0.674096                  0.325904
 # Total charge                  8.000000                 -0.000000


 !-----------------------------------------------------------------------------!
                           Hirschfeld Charges

  #Atom  Element  Kind  Ref Charge     Population                     Net charge
      1       O      1       6.000          6.545                         -0.545
      2       H      2       1.000          0.714                          0.286
      3       H      2       1.000          0.740                          0.260

  Total Charge                                                             0.000
 !-----------------------------------------------------------------------------!

 ENERGY| Total FORCE_EVAL ( QS ) energy (a.u.):              -17.133213785227262


 DISTRIBUTION OF THE NEIGHBOR LISTS
              Total number of particle pairs:                                  6
              Total number of matrix elements:                               374
              Average number of particle pairs:                                6
              Maximum number of particle pairs:                                6
              Average number of matrix element:                              374
              Maximum number of matrix elements:                             374


 DISTRIBUTION OF THE OVERLAP MATRIX
              Number  of non-zero blocks:                                      6
              Percentage non-zero blocks:                                 100.00
              Average number of blocks per CPU:                                6
              Maximum number of blocks per CPU:                                6
              Average number of matrix elements per CPU:                     384
              Maximum number of matrix elements per CPU:                     384

 Number of electrons:                                                          8
 Number of occupied orbitals:                                                  4
 Number of molecular orbitals:                                                 4

 Number of orbital functions:                                                 23
 Number of independent orbital functions:                                     23

 Parameters for the always stable predictor-corrector (ASPC) method:

  ASPC order: 1

  B(1) =   2.500000
  B(2) =  -2.000000
  B(3) =   0.500000

 Extrapolation method: ASPC


 SCF WAVEFUNCTION OPTIMIZATION

  Step     Update method      Time    Convergence         Total energy    Change
  ------------------------------------------------------------------------------

  Trace(PS):                                    8.0000000000
  Electronic density on regular grids:         -7.9998953606        0.0001046394
  Core density on regular grids:                7.9998192544       -0.0001807456
  Total charge density on r-space grids:       -0.0000761062
  Total charge density g-space grids:          -0.0000761062

     1 Pulay/Diag. 0.50E+00    0.1     0.52294805       -17.1144949539 -1.71E+01

  Trace(PS):                                    8.0000000000
  Electronic density on regular grids:         -7.9998111317        0.0001888683
  Core density on regular grids:                7.9998192544       -0.0001807456
  Total charge density on r-space grids:        0.0000081226
  Total charge density g-space grids:           0.0000081226

     2 Pulay/Diag. 0.50E+00    0.2     0.14549508       -17.6199469702 -5.05E-01

  Trace(PS):                                    8.0000000000
  Electronic density on regular grids:         -7.9997388983        0.0002611017
  Core density on regular grids:                7.9998192544       -0.0001807456
  Total charge density on r-space grids:        0.0000803561
  Total charge density g-space grids:           0.0000803561

     3 Pulay/Diag. 0.50E+00    0.2     0.06051442       -17.0005728752  6.19E-01

  Trace(PS):                                    8.0000000000
  Electronic density on regular grids:         -7.9997426889        0.0002573111
  Core density on regular grids:                7.9998192544       -0.0001807456
  Total charge density on r-space grids:        0.0000765655
  Total charge density g-space grids:           0.0000765655

     4 Pulay/Diag. 0.50E+00    0.2     0.01710346       -17.1782557440 -1.78E-01

  Trace(PS):                                    8.0000000000
  Electronic density on regular grids:         -7.9997423366        0.0002576634
  Core density on regular grids:                7.9998192544       -0.0001807456
  Total charge density on r-space grids:        0.0000769178
  Total charge density g-space grids:           0.0000769178

     5 Pulay/Diag. 0.50E+00    0.2     0.00213141       -17.1386610792  3.96E-02

  Trace(PS):                                    8.0000000000
  Electronic density on regular grids:         -7.9997424775        0.0002575225
  Core density on regular grids:                7.9998192544       -0.0001807456
  Total charge density on r-space grids:        0.0000767769
  Total charge density g-space grids:           0.0000767769

     6 Pulay/Diag. 0.50E+00    0.2     0.00066722       -17.1434161912 -4.76E-03

  Trace(PS):                                    8.0000000000
  Electronic density on regular grids:         -7.9997426095        0.0002573905
  Core density on regular grids:                7.9998192544       -0.0001807456
  Total charge density on r-space grids:        0.0000766449
  Total charge density g-space grids:           0.0000766449

     7 Pulay/Diag. 0.50E+00    0.2     0.00018024       -17.1451118242 -1.70E-03

  Trace(PS):                                    8.0000000000
  Electronic density on regular grids:         -7.9997426120        0.0002573880
  Core density on regular grids:                7.9998192544       -0.0001807456
  Total charge density on r-space grids:        0.0000766424
  Total charge density g-space grids:           0.0000766424

     8 Pulay/Diag. 0.50E+00    0.2     0.00008139       -17.1453800342 -2.68E-04

  Trace(PS):                                    8.0000000000
  Electronic density on regular grids:         -7.9997426581        0.0002573419
  Core density on regular grids:                7.9998192544       -0.0001807456
  Total charge density on r-space grids:        0.0000765962
  Total charge density g-space grids:           0.0000765962

     9 Pulay/Diag. 0.50E+00    0.2     0.00006821       -17.1453240346  5.60E-05

  Trace(PS):                                    8.0000000000
  Electronic density on regular grids:         -7.9997426627        0.0002573373
  Core density on regular grids:                7.9998192544       -0.0001807456
  Total charge density on r-space grids:        0.0000765917
  Total charge density g-space grids:           0.0000765917

    10 Pulay/Diag. 0.50E+00    0.2     0.00003065       -17.1453940807 -7.00E-05

  Trace(PS):                                    8.0000000000
  Electronic density on regular grids:         -7.9997426669        0.0002573331
  Core density on regular grids:                7.9998192544       -0.0001807456
  Total charge density on r-space grids:        0.0000765875
  Total charge density g-space grids:           0.0000765875

    11 Pulay/Diag. 0.50E+00    0.2     0.00001015       -17.1453131123  8.10E-05

  Trace(PS):                                    8.0000000000
  Electronic density on regular grids:         -7.9997426695        0.0002573305
  Core density on regular grids:                7.9998192544       -0.0001807456
  Total charge density on r-space grids:        0.0000765849
  Total charge density g-space grids:           0.0000765849

    12 Pulay/Diag. 0.50E+00    0.2     0.00000643       -17.1453247763 -1.17E-05

  *** SCF run converged in    12 steps ***


  Electronic density on regular grids:         -7.9997426695        0.0002573305
  Core density on regular grids:                7.9998192544       -0.0001807456
  Total charge density on r-space grids:        0.0000765849
  Total charge density g-space grids:           0.0000765849

  Overlap energy of the core charge distribution:               0.00000011004855
  Self energy of the core charge distribution:                -43.83289054591484
  Core Hamiltonian energy:                                     12.72972618558615
  Hartree energy:                                              18.05634434664654
  Exchange-correlation energy:                                 -4.09850487269383

  Total energy:                                               -17.14532477632743


 MULLIKEN POPULATION ANALYSIS

 #  Atom  Element  Kind  Atomic population                Net charge
       1     O        1          6.645891                 -0.645891
       2     H        2          0.669963                  0.330037
       3     H        2          0.684146                  0.315854
 # Total charge                  8.000000                 -0.000000


 !-----------------------------------------------------------------------------!
                           Hirschfeld Charges

  #Atom  Element  Kind  Ref Charge     Population                     Net charge
      1       O      1       6.000          6.567                         -0.567
      2       H      2       1.000          0.733                          0.267
      3       H      2       1.000          0.700                          0.300

  Total Charge                                                             0.000
 !-----------------------------------------------------------------------------!

 ENERGY| Total FORCE_EVAL ( QS ) energy (a.u.):              -17.145324776327428


 *******************************************************************************
 ***                 MNBRACK - NUMBER OF ENERGY EVALUATIONS :       3        ***
 *******************************************************************************

 DISTRIBUTION OF THE NEIGHBOR LISTS
              Total number of particle pairs:                                  6
              Total number of matrix elements:                               374
              Average number of particle pairs:                                6
              Maximum number of particle pairs:                                6
              Average number of matrix element:                              374
              Maximum number of matrix elements:                             374


 DISTRIBUTION OF THE OVERLAP MATRIX
              Number  of non-zero blocks:                                      6
              Percentage non-zero blocks:                                 100.00
              Average number of blocks per CPU:                                6
              Maximum number of blocks per CPU:                                6
              Average number of matrix elements per CPU:                     384
              Maximum number of matrix elements per CPU:                     384

 Number of electrons:                                                          8
 Number of occupied orbitals:                                                  4
 Number of molecular orbitals:                                                 4

 Number of orbital functions:                                                 23
 Number of independent orbital functions:                                     23

 Parameters for the always stable predictor-corrector (ASPC) method:

  ASPC order: 2

  B(1) =   2.800000
  B(2) =  -2.800000
  B(3) =   1.200000
  B(4) =  -0.200000

 Extrapolation method: ASPC


 SCF WAVEFUNCTION OPTIMIZATION

  Step     Update method      Time    Convergence         Total energy    Change
  ------------------------------------------------------------------------------

  Trace(PS):                                    8.0000000000
  Electronic density on regular grids:         -7.9995702795        0.0004297205
  Core density on regular grids:                8.0002817176        0.0002817176
  Total charge density on r-space grids:        0.0007114382
  Total charge density g-space grids:           0.0007114382

     1 Pulay/Diag. 0.50E+00    0.1     0.67965058       -17.0604137380 -1.71E+01

  Trace(PS):                                    8.0000000000
  Electronic density on regular grids:         -7.9996772578        0.0003227422
  Core density on regular grids:                8.0002817176        0.0002817176
  Total charge density on r-space grids:        0.0006044598
  Total charge density g-space grids:           0.0006044598

     2 Pulay/Diag. 0.50E+00    0.2     0.21751174       -16.3843592939  6.76E-01

  Trace(PS):                                    8.0000000000
  Electronic density on regular grids:         -7.9997742072        0.0002257928
  Core density on regular grids:                8.0002817176        0.0002817176
  Total charge density on r-space grids:        0.0005075104
  Total charge density g-space grids:           0.0005075104

     3 Pulay/Diag. 0.50E+00    0.2     0.10242506       -17.2759628633 -8.92E-01

  Trace(PS):                                    8.0000000000
  Electronic density on regular grids:         -7.9997692915        0.0002307085
  Core density on regular grids:                8.0002817176        0.0002817176
  Total charge density on r-space grids:        0.0005124261
  Total charge density g-space grids:           0.0005124261

     4 Pulay/Diag. 0.50E+00    0.2     0.03148526       -17.0731936674  2.03E-01

  Trace(PS):                                    8.0000000000
  Electronic density on regular grids:         -7.9997700622        0.0002299378
  Core density on regular grids:                8.0002817176        0.0002817176
  Total charge density on r-space grids:        0.0005116554
  Total charge density g-space grids:           0.0005116554

     5 Pulay/Diag. 0.50E+00    0.2     0.00384844       -17.1625755225 -8.94E-02

  Trace(PS):                                    8.0000000000
  Electronic density on regular grids:         -7.9997698324        0.0002301676
  Core density on regular grids:                8.0002817176        0.0002817176
  Total charge density on r-space grids:        0.0005118852
  Total charge density g-space grids:           0.0005118852

     6 Pulay/Diag. 0.50E+00    0.2     0.00150305       -17.1527627464  9.81E-03

  Trace(PS):                                    8.0000000000
  Electronic density on regular grids:         -7.9997697131        0.0002302869
  Core density on regular grids:                8.0002817176        0.0002817176
  Total charge density on r-space grids:        0.0005120045
  Total charge density g-space grids:           0.0005120045

     7 Pulay/Diag. 0.50E+00    0.2     0.00043080       -17.1492845243  3.48E-03

  Trace(PS):                                    8.0000000000
  Electronic density on regular grids:         -7.9997696664        0.0002303336
  Core density on regular grids:                8.0002817176        0.0002817176
  Total charge density on r-space grids:        0.0005120512
  Total charge density g-space grids:           0.0005120512

     8 Pulay/Diag. 0.50E+00    0.2     0.00020806       -17.1489338057  3.51E-04

  Trace(PS):                                    8.0000000000
  Electronic density on regular grids:         -7.9997696068        0.0002303932
  Core density on regular grids:                8.0002817176        0.0002817176
  Total charge density on r-space grids:        0.0005121109
  Total charge density g-space grids:           0.0005121109

     9 Pulay/Diag. 0.50E+00    0.2     0.00013527       -17.1488161672  1.18E-04

  Trace(PS):                                    8.0000000000
  Electronic density on regular grids:         -7.9997696013        0.0002303987
  Core density on regular grids:                8.0002817176        0.0002817176
  Total charge density on r-space grids:        0.0005121164
  Total charge density g-space grids:           0.0005121164

    10 Pulay/Diag. 0.50E+00    0.2     0.00005218       -17.1487485979  6.76E-05

  Trace(PS):                                    8.0000000000
  Electronic density on regular grids:         -7.9997695939        0.0002304061
  Core density on regular grids:                8.0002817176        0.0002817176
  Total charge density on r-space grids:        0.0005121237
  Total charge density g-space grids:           0.0005121237

    11 Pulay/Diag. 0.50E+00    0.2     0.00002429       -17.1488594322 -1.11E-04

  Trace(PS):                                    8.0000000000
  Electronic density on regular grids:         -7.9997695900        0.0002304100
  Core density on regular grids:                8.0002817176        0.0002817176
  Total charge density on r-space grids:        0.0005121276
  Total charge density g-space grids:           0.0005121276

    12 Pulay/Diag. 0.50E+00    0.2     0.00001199       -17.1488186096  4.08E-05

  Trace(PS):                                    8.0000000000
  Electronic density on regular grids:         -7.9997695889        0.0002304111
  Core density on regular grids:                8.0002817176        0.0002817176
  Total charge density on r-space grids:        0.0005121287
  Total charge density g-space grids:           0.0005121287

    13 Pulay/Diag. 0.50E+00    0.2     0.00000585       -17.1488368774 -1.83E-05

  *** SCF run converged in    13 steps ***


  Electronic density on regular grids:         -7.9997695889        0.0002304111
  Core density on regular grids:                8.0002817176        0.0002817176
  Total charge density on r-space grids:        0.0005121287
  Total charge density g-space grids:           0.0005121287

  Overlap energy of the core charge distribution:               0.00000008790619
  Self energy of the core charge distribution:                -43.83289054591484
  Core Hamiltonian energy:                                     12.86724176947690
  Hartree energy:                                              17.95658396360291
  Exchange-correlation energy:                                 -4.13977215249191

  Total energy:                                               -17.14883687742075


 MULLIKEN POPULATION ANALYSIS

 #  Atom  Element  Kind  Atomic population                Net charge
       1     O        1          6.650967                 -0.650967
       2     H        2          0.676280                  0.323720
       3     H        2          0.672753                  0.327247
 # Total charge                  8.000000                  0.000000


 !-----------------------------------------------------------------------------!
                           Hirschfeld Charges

  #Atom  Element  Kind  Ref Charge     Population                     Net charge
      1       O      1       6.000          6.557                         -0.557
      2       H      2       1.000          0.722                          0.278
      3       H      2       1.000          0.721                          0.279

  Total Charge                                                             0.000
 !-----------------------------------------------------------------------------!

  Trace(PS):                                    8.0000000000
  Electronic density on regular grids:         -7.9997695883        0.0002304117
  Core density on regular grids:                8.0002817176        0.0002817176
  Total charge density on r-space grids:        0.0005121293
  Total charge density g-space grids:           0.0005121293


 ENERGY| Total FORCE_EVAL ( QS ) energy (a.u.):              -17.148823763528661


 ATOMIC FORCES in [a.u.]

 # Atom   Kind   Element          X              Y              Z
      1      1      O           0.00000000     0.00000000     0.00000000
      2      2      H           0.01638782     0.02090843     0.02695251
      3      2      H           0.03136772    -0.00972636     0.16477519
 SUM OF ATOMIC FORCES           0.04775554     0.01118207     0.19172769     0.19790184

 STRESS TENSOR [GPa]

            X               Y               Z
  X      -1.50079592      0.00529186      0.03398638
  Y       0.00529186      0.92151193      0.01051033
  Z       0.03398638      0.01051033      0.39509755

  1/3 Trace(stress tensor):  -6.13954826E-02

  Det(stress tensor)      :  -5.47326351E-01


 EIGENVECTORS AND EIGENVALUES OF THE STRESS TENSOR

         -1.50141573      0.39549287      0.92173641

          0.99983746      0.01785984      0.00246615
         -0.00210605     -0.02015332      0.99979468
         -0.01790587      0.99963737      0.02011243

 DISTRIBUTION OF THE NEIGHBOR LISTS
              Total number of particle pairs:                                  6
              Total number of matrix elements:                               374
              Average number of particle pairs:                                6
              Maximum number of particle pairs:                                6
              Average number of matrix element:                              374
              Maximum number of matrix elements:                             374


 DISTRIBUTION OF THE OVERLAP MATRIX
              Number  of non-zero blocks:                                      6
              Percentage non-zero blocks:                                 100.00
              Average number of blocks per CPU:                                6
              Maximum number of blocks per CPU:                                6
              Average number of matrix elements per CPU:                     384
              Maximum number of matrix elements per CPU:                     384

 Number of electrons:                                                          8
 Number of occupied orbitals:                                                  4
 Number of molecular orbitals:                                                 4

 Number of orbital functions:                                                 23
 Number of independent orbital functions:                                     23

 Parameters for the always stable predictor-corrector (ASPC) method:

  ASPC order: 3

  B(1) =   3.000000
  B(2) =  -3.428571
  B(3) =   1.928571
  B(4) =  -0.571429
  B(5) =   0.071429

 Extrapolation method: ASPC


 SCF WAVEFUNCTION OPTIMIZATION

  Step     Update method      Time    Convergence         Total energy    Change
  ------------------------------------------------------------------------------

  Trace(PS):                                    8.0000000000
  Electronic density on regular grids:         -8.0000100993       -0.0000100993
  Core density on regular grids:                7.9999652714       -0.0000347286
  Total charge density on r-space grids:       -0.0000448278
  Total charge density g-space grids:          -0.0000448278

     1 Pulay/Diag. 0.50E+00    0.1     0.96307932       -17.0781770188 -1.71E+01

  Trace(PS):                                    8.0000000000
  Electronic density on regular grids:         -7.9998874923        0.0001125077
  Core density on regular grids:                7.9999652714       -0.0000347286
  Total charge density on r-space grids:        0.0000777791
  Total charge density g-space grids:           0.0000777791

     2 Pulay/Diag. 0.50E+00    0.2     0.11961836       -17.5668216862 -4.89E-01

  Trace(PS):                                    8.0000000000
  Electronic density on regular grids:         -7.9997741228        0.0002258772
  Core density on regular grids:                7.9999652714       -0.0000347286
  Total charge density on r-space grids:        0.0001911486
  Total charge density g-space grids:           0.0001911486

     3 Pulay/Diag. 0.50E+00    0.2     0.08274697       -17.1326195246  4.34E-01

  Trace(PS):                                    8.0000000000
  Electronic density on regular grids:         -7.9997789521        0.0002210479
  Core density on regular grids:                7.9999652714       -0.0000347286
  Total charge density on r-space grids:        0.0001863193
  Total charge density g-space grids:           0.0001863193

     4 Pulay/Diag. 0.50E+00    0.2     0.03626570       -17.2718287947 -1.39E-01

  Trace(PS):                                    8.0000000000
  Electronic density on regular grids:         -7.9997783386        0.0002216614
  Core density on regular grids:                7.9999652714       -0.0000347286
  Total charge density on r-space grids:        0.0001869329
  Total charge density g-space grids:           0.0001869329

     5 Pulay/Diag. 0.50E+00    0.2     0.00336833       -17.1418069622  1.30E-01

  Trace(PS):                                    8.0000000000
  Electronic density on regular grids:         -7.9997784082        0.0002215918
  Core density on regular grids:                7.9999652714       -0.0000347286
  Total charge density on r-space grids:        0.0001868632
  Total charge density g-space grids:           0.0001868632

     6 Pulay/Diag. 0.50E+00    0.2     0.00054460       -17.1501585598 -8.35E-03

  Trace(PS):                                    8.0000000000
  Electronic density on regular grids:         -7.9997784562        0.0002215438
[...]


 !-----------------------------------------------------------------------------!
                           Hirschfeld Charges

  #Atom  Element  Kind  Ref Charge     Population                     Net charge
      1       O      1       6.000          6.562                         -0.562
      2       H      2       1.000          0.708                          0.292
      3       H      2       1.000          0.729                          0.271

  Total Charge                                                             0.000
 !-----------------------------------------------------------------------------!

  Trace(PS):                                    8.0000000000
  Electronic density on regular grids:         -7.9997517428        0.0002482572
  Core density on regular grids:                7.9962910281       -0.0037089719
  Total charge density on r-space grids:       -0.0034607147
  Total charge density g-space grids:          -0.0034607147


 ENERGY| Total FORCE_EVAL ( QS ) energy (a.u.):              -17.209774322913653


 ATOMIC FORCES in [a.u.]

 # Atom   Kind   Element          X              Y              Z
      1      1      O           0.00000000     0.00000000     0.00000000
      2      2      H           0.00000252    -0.00000591     0.00000023
      3      2      H          -0.00000409    -0.00000242    -0.00001779
 SUM OF ATOMIC FORCES          -0.00000158    -0.00000833    -0.00001756     0.00001950

 STRESS TENSOR [GPa]

            X               Y               Z
  X      -0.54832604     -0.04854602      0.04775979
  Y      -0.04854602      0.76698268     -0.12349657
  Z       0.04775979     -0.12349657      1.09302139

  1/3 Trace(stress tensor):   4.37226010E-01

  Det(stress tensor)      :  -4.55067352E-01


 EIGENVECTORS AND EIGENVALUES OF THE STRESS TENSOR

         -0.55125747      0.72622555      1.13670995

          0.99906123     -0.02399255      0.03606951
          0.03431470      0.94650285     -0.32086579
         -0.02644150      0.32180228      0.94643760

 *******************************************************************************
 ***                 BRENT   - NUMBER OF ENERGY EVALUATIONS :       4        ***
 *******************************************************************************

 --------  Informations at step =     6 ------------
  Optimization Method        =                   CG
  Total Energy               =       -17.2097743229
  Real energy change         =        -0.0000000201
  Decrease in energy         =                  YES
  Used time                  =                9.073

  Convergence check :
  Max. step size             =         0.0000687583
  Conv. limit for step size  =         0.0010000000
  Convergence in step size   =                  YES
  RMS step size              =         0.0000332829
  Conv. limit for RMS step   =         0.0010000000
  Convergence in RMS step    =                  YES
  Max. gradient              =         0.0002773434
  Conv. limit for gradients  =         0.0010000000
  Conv. in gradients         =                  YES
  RMS gradient               =         0.0001342497
  Conv. limit for RMS grad.  =         0.0010000000
  Conv. in RMS gradients     =                  YES
 ---------------------------------------------------

 *******************************************************************************
 ***                    GEOMETRY OPTIMIZATION COMPLETED                      ***
 *******************************************************************************

                    Reevaluating energy at the minimum

 DISTRIBUTION OF THE NEIGHBOR LISTS
              Total number of particle pairs:                                  6
              Total number of matrix elements:                               374
              Average number of particle pairs:                                6
              Maximum number of particle pairs:                                6
              Average number of matrix element:                              374
              Maximum number of matrix elements:                             374


 DISTRIBUTION OF THE OVERLAP MATRIX
              Number  of non-zero blocks:                                      6
              Percentage non-zero blocks:                                 100.00
              Average number of blocks per CPU:                                6
              Maximum number of blocks per CPU:                                6
              Average number of matrix elements per CPU:                     384
              Maximum number of matrix elements per CPU:                     384

 Number of electrons:                                                          8
 Number of occupied orbitals:                                                  4
 Number of molecular orbitals:                                                 4

 Number of orbital functions:                                                 23
 Number of independent orbital functions:                                     23

 Parameters for the always stable predictor-corrector (ASPC) method:

  ASPC order: 3

  B(1) =   3.000000
  B(2) =  -3.428571
  B(3) =   1.928571
  B(4) =  -0.571429
  B(5) =   0.071429

 Extrapolation method: ASPC


 SCF WAVEFUNCTION OPTIMIZATION

  Step     Update method      Time    Convergence         Total energy    Change
  ------------------------------------------------------------------------------

  Trace(PS):                                    8.0000000000
  Electronic density on regular grids:         -7.9997517811        0.0002482189
  Core density on regular grids:                7.9962910285       -0.0037089715
  Total charge density on r-space grids:       -0.0034607526
  Total charge density g-space grids:          -0.0034607526

     1 Pulay/Diag. 0.50E+00    0.1     0.00059474       -17.2097742695 -1.72E+01

  Trace(PS):                                    8.0000000000
  Electronic density on regular grids:         -7.9997517606        0.0002482394
  Core density on regular grids:                7.9962910285       -0.0037089715
  Total charge density on r-space grids:       -0.0034607321
  Total charge density g-space grids:          -0.0034607321

     2 Pulay/Diag. 0.50E+00    0.2     0.00003341       -17.2096794028  9.49E-05

  Trace(PS):                                    8.0000000000
  Electronic density on regular grids:         -7.9997517415        0.0002482585
  Core density on regular grids:                7.9962910285       -0.0037089715
  Total charge density on r-space grids:       -0.0034607130
  Total charge density g-space grids:          -0.0034607130

     3 Pulay/Diag. 0.50E+00    0.2     0.00002443       -17.2097605686 -8.12E-05

  Trace(PS):                                    8.0000000000
  Electronic density on regular grids:         -7.9997517435        0.0002482565
  Core density on regular grids:                7.9962910285       -0.0037089715
  Total charge density on r-space grids:       -0.0034607150
  Total charge density g-space grids:          -0.0034607150

     4 Pulay/Diag. 0.50E+00    0.2     0.00001894       -17.2096969501  6.36E-05

  Trace(PS):                                    8.0000000000
  Electronic density on regular grids:         -7.9997517430        0.0002482570
  Core density on regular grids:                7.9962910285       -0.0037089715
  Total charge density on r-space grids:       -0.0034607145
  Total charge density g-space grids:          -0.0034607145

     5 Pulay/Diag. 0.50E+00    0.2     0.00000078       -17.2097782066 -8.13E-05

  *** SCF run converged in     5 steps ***


  Electronic density on regular grids:         -7.9997517430        0.0002482570
  Core density on regular grids:                7.9962910285       -0.0037089715
  Total charge density on r-space grids:       -0.0034607145
  Total charge density g-space grids:          -0.0034607145

  Overlap energy of the core charge distribution:               0.00000018492704
  Self energy of the core charge distribution:                -43.83289054591484
  Core Hamiltonian energy:                                     12.85919697600899
  Hartree energy:                                              17.89999074431566
  Exchange-correlation energy:                                 -4.13607556595934

  Total energy:                                               -17.20977820662248


 MULLIKEN POPULATION ANALYSIS

 #  Atom  Element  Kind  Atomic population                Net charge
       1     O        1          6.669263                 -0.669263
       2     H        2          0.670662                  0.329338
       3     H        2          0.660074                  0.339926
 # Total charge                  8.000000                 -0.000000


 !-----------------------------------------------------------------------------!
                           Hirschfeld Charges

  #Atom  Element  Kind  Ref Charge     Population                     Net charge
      1       O      1       6.000          6.562                         -0.562
      2       H      2       1.000          0.708                          0.292
      3       H      2       1.000          0.729                          0.271

  Total Charge                                                             0.000
 !-----------------------------------------------------------------------------!

 ENERGY| Total FORCE_EVAL ( QS ) energy (a.u.):              -17.209778206622481


 -------------------------------------------------------------------------------
 -                                                                             -
 -                                DBCSR STATISTICS                             -
 -                                                                             -
 -------------------------------------------------------------------------------
 COUNTER                                      CPU                  ACC      ACC%
 number of processed stacks                  2928                    0       0.0
 matmuls inhomo. stacks                         0                    0       0.0
 matmuls total                               5010                    0       0.0
 flops   5 x    4 x    5                   164800                    0       0.0
 flops  13 x    4 x    5                   214240                    0       0.0
 flops   5 x    4 x   13                   214240                    0       0.0
 flops  13 x    5 x    4                   273520                    0       0.0
 flops   5 x   13 x    4                   273520                    0       0.0
 flops  13 x    4 x   13                   278512                    0       0.0
 flops   5 x    5 x    4                   315600                    0       0.0
 flops  13 x   13 x    4                   711152                    0       0.0
 flops total                              2445584                    0       0.0
 marketing flops                          3097824
 -------------------------------------------------------------------------------

 -------------------------------------------------------------------------------
 ----                             MULTIGRID INFO                            ----
 -------------------------------------------------------------------------------
 count for grid        1:           8481          cutoff [a.u.]           50.00
 count for grid        2:           2242          cutoff [a.u.]           16.67
 count for grid        3:            229          cutoff [a.u.]            5.56
 count for grid        4:              0          cutoff [a.u.]            1.85
 total gridlevel count  :          10952

 -------------------------------------------------------------------------------
 -                                                                             -
 -                         MESSAGE PASSING PERFORMANCE                         -
 -                                                                             -
 -------------------------------------------------------------------------------

 ROUTINE             CALLS  TOT TIME [s]  AVE VOLUME [Bytes]  PERFORMANCE [MB/s]
 MP_Group                5         0.000
 MP_Bcast              481         0.018                  4.                0.11
 MP_Allreduce         6614         0.008                 16.               12.87
 MP_Sync                 4         0.000
 MP_Alltoall         11719         0.007                809.             1263.65
 MP_Wait             17568         0.005
 MP_ISend             5856         0.007               1305.             1149.52
 MP_IRecv             5856         0.003               1305.             2647.51
 MP_Memory           16744         0.006
 -------------------------------------------------------------------------------


 -------------------------------------------------------------------------------
 -                                                                             -
 -                           R E F E R E N C E S                               -
 -                                                                             -
 -------------------------------------------------------------------------------
 
 CP2K version 2.6.2, the CP2K developers group (2015).
 CP2K is freely available from http://www.cp2k.org/ .

 Borstnik, U; VandeVondele, J; Weber, V; Hutter, J. 
 PARALLEL COMPUTING, 40 (5-6), 47-58 (2014). 
 Sparse matrix multiplication: The distributed block-compressed sparse
 row library.
 http://dx.doi.org/10.1016/j.parco.2014.03.012


 Hutter, J; Iannuzzi, M; Schiffmann, F; VandeVondele, J. 
 WILEY INTERDISCIPLINARY REVIEWS-COMPUTATIONAL MOLECULAR SCIENCE, 4 (1), 15-25 (2014). 
 CP2K: atomistic simulations of condensed matter systems.
 http://dx.doi.org/10.1002/wcms.1159


 Krack, M. 
 THEORETICAL CHEMISTRY ACCOUNTS, 114 (1-3), 145-152 (2005). 
 Pseudopotentials for H to Kr optimized for gradient-corrected
 exchange-correlation functionals.
 http://dx.doi.org/10.1007/s00214-005-0655-y


 VandeVondele, J; Krack, M; Mohamed, F; Parrinello, M; Chassaing, T;
 Hutter, J. COMPUTER PHYSICS COMMUNICATIONS, 167 (2), 103-128 (2005). 
 QUICKSTEP: Fast and accurate density functional calculations using a
 mixed Gaussian and plane waves approach.
 http://dx.doi.org/10.1016/j.cpc.2004.12.014


 Frigo, M; Johnson, SG. 
 PROCEEDINGS OF THE IEEE, 93 (2), 216-231 (2005). 
 The design and implementation of FFTW3.
 http://dx.doi.org/10.1109/JPROC.2004.840301


 Kolafa, J. 
 JOURNAL OF COMPUTATIONAL CHEMISTRY, 25 (3), 335-342 (2004). 
 Time-reversible always stable predictor-corrector method for molecular dynamics of polarizable molecules.
 http://dx.doi.org/10.1002/jcc.10385


 Hartwigsen, C; Goedecker, S; Hutter, J. 
 PHYSICAL REVIEW B, 58 (7), 3641-3662 (1998). 
 Relativistic separable dual-space Gaussian pseudopotentials from H to Rn.
 http://dx.doi.org/10.1103/PhysRevB.58.3641


 Lippert, G; Hutter, J; Parrinello, M. 
 MOLECULAR PHYSICS, 92 (3), 477-487 (1997). 
 A hybrid Gaussian and plane wave density functional scheme.
 http://dx.doi.org/10.1080/002689797170220


 Goedecker, S; Teter, M; Hutter, J. 
 PHYSICAL REVIEW B, 54 (3), 1703-1710 (1996). 
 Separable dual-space Gaussian pseudopotentials.
 http://dx.doi.org/10.1103/PhysRevB.54.1703


 -------------------------------------------------------------------------------
 -                                                                             -
 -                                T I M I N G                                  -
 -                                                                             -
 -------------------------------------------------------------------------------
 SUBROUTINE                       CALLS  ASD         SELF TIME        TOTAL TIME
                                MAXIMUM       AVERAGE  MAXIMUM  AVERAGE  MAXIMUM
 CP2K                                 1  1.0    0.020    0.020   83.188   83.188
 cp_geo_opt                           1  2.0    0.024    0.024   82.706   82.706
 geoopt_cg                            1  3.0    0.000    0.000   82.682   82.682
 cp_cg_main                           1  4.0    0.020    0.020   82.682   82.682
 cp_eval_at                          55  8.5    0.006    0.006   82.655   82.655
 qs_energies_scf                     55 10.1    0.016    0.016   78.883   78.883
 cg_linmin                            6  5.0    0.000    0.000   72.311   72.311
 linmin_gold                          6  6.0    0.000    0.000   72.311   72.311
 scf_env_do_scf                      55 11.1    0.003    0.003   70.817   70.817
 scf_env_do_scf_inner_loop          439 12.2    0.044    0.044   70.813   70.813
 qs_forces                           33  9.3    0.003    0.003   55.373   55.373
 fft_wrap_pw1pw2                   5269 17.0    0.057    0.057   48.269   48.269
 cg_dbrent                            6  7.0    0.000    0.000   45.949   45.949
 cg_deval1d                          27  8.0    0.000    0.000   45.949   45.949
 fft_wrap_pw1pw2_50                2371 17.4    2.417    2.417   44.595   44.595
 rebuild_ks_matrix                  472 14.0    0.001    0.001   37.861   37.861
 qs_ks_build_kohn_sham_matrix       472 15.0    0.064    0.064   37.860   37.860
 qs_ks_update_qs_env                439 13.2    0.006    0.006   34.146   34.146
 fft3d_s                           5270 19.0   30.290   30.290   30.354   30.354
 cg_mnbrak                            6  7.0    0.000    0.000   26.361   26.361
 cg_eval1d                           21  8.0    0.000    0.000   26.361   26.361
 qs_rho_update_rho                  494 13.3    0.002    0.002   24.661   24.661
 calculate_rho_elec                 494 14.3    1.907    1.907   24.659   24.659
 density_rs2pw                      494 15.3    0.012    0.012   22.511   22.511
 sum_up_and_integrate               472 16.0    0.318    0.318   14.231   14.231
 gspace_mixing                      384 13.2    0.841    0.841   14.223   14.223
 integrate_v_rspace                 472 17.0    1.416    1.416   13.912   13.912
 potential_pw2rs                    472 18.0    0.053    0.053   12.456   12.456
 qs_vxc_create                      472 16.0    0.007    0.007    8.933    8.933
 xc_vxc_pw_create                   472 17.0    1.006    1.006    8.925    8.925
 pw_gather_s                       2503 18.7    7.966    7.966    7.966    7.966
 xc_rho_set_and_dset_create         472 18.0    0.010    0.010    7.918    7.918
 xc_functional_eval                 472 19.0    7.569    7.569    7.569    7.569
 pw_scatter_s                      2766 19.3    7.306    7.306    7.306    7.306
 pulay_mixing                       384 14.2    6.703    6.703    6.713    6.713
 init_scf_run                        55 11.1    0.011    0.011    6.182    6.182
 scf_env_initial_rho_setup           55 12.1    0.002    0.002    6.131    6.131
 pw_poisson_solve                   472 16.0    3.342    3.342    4.965    4.965
 qs_ks_update_qs_env_forces          33 10.3    0.000    0.000    3.732    3.732
 fft_wrap_pw1pw2_20                 966 18.6    0.173    0.173    3.261    3.261
 mixing_init                         55 13.1    3.074    3.074    3.074    3.074
 wfi_extrapolate                     55 13.1    0.005    0.005    2.923    2.923
 pw_copy                           3875 18.0    2.819    2.819    2.819    2.819
 -------------------------------------------------------------------------------

  **** **** ******  **  PROGRAM ENDED AT                 2016-06-06 09:32:20.053
 ***** ** ***  *** **   PROGRAM RAN ON                       lauri-Lenovo-Z50-70
 **    ****   ******    PROGRAM RAN BY                                     lauri
 ***** **    ** ** **   PROGRAM PROCESS ID                                  5924
  **** **  *******  **  PROGRAM STOPPED IN /home/lauri/Dropbox/nomad-dev/nomad-l
                                           ab-base/parsers/cp2k/test/unittests/c
                                           p2k_2.6.2/geo_opt/each
