 DBCSR| Multiplication driver                                                SMM
 DBCSR| Multrec recursion limit                                              512
 DBCSR| Multiplication stack size                                           1000
 DBCSR| Multiplication size stacks                                             3
 DBCSR| Use subcommunicators                                                   T
 DBCSR| Use MPI combined types                                                 F
 DBCSR| Use MPI memory allocation                                              T
 DBCSR| Use Communication thread                                               T
 DBCSR| Communication thread load                                             87


  **** **** ******  **  PROGRAM STARTED AT               2016-05-31 13:23:26.975
 ***** ** ***  *** **   PROGRAM STARTED ON                   lauri-Lenovo-Z50-70
 **    ****   ******    PROGRAM STARTED BY                                 lauri
 ***** **    ** ** **   PROGRAM PROCESS ID                                  8931
  **** **  *******  **  PROGRAM STARTED IN /home/lauri/Dropbox/nomad-dev/nomad-l
                                           ab-base/parsers/cp2k/test/unittests/c
                                           p2k_2.6.2/geo_opt/lbfgs

 CP2K| version string:                                        CP2K version 2.6.2
 CP2K| source code revision number:                                    svn:15893
 CP2K| is freely available from                             http://www.cp2k.org/
 CP2K| Program compiled at                           ke 4.11.2015 08.48.42 +0200
 CP2K| Program compiled on                                   lauri-Lenovo-Z50-70
 CP2K| Program compiled for                          Linux-x86-64-gfortran_basic
 CP2K| Input file name                                               geo_opt.inp

 GLOBAL| Force Environment number                                              1
 GLOBAL| Basis set file name                                     ../../BASIS_SET
 GLOBAL| Geminal file name                                         BASIS_GEMINAL
 GLOBAL| Potential file name                                ../../GTH_POTENTIALS
 GLOBAL| MM Potential file name                                     MM_POTENTIAL
 GLOBAL| Coordinate file name                                      __STD_INPUT__
 GLOBAL| Method name                                                        CP2K
 GLOBAL| Project name                                                        H2O
 GLOBAL| Preferred FFT library                                             FFTW3
 GLOBAL| Preferred diagonalization lib.                                       SL
 GLOBAL| Run type                                                        GEO_OPT
 GLOBAL| All-to-all communication in single precision                          F
 GLOBAL| FFTs using library dependent lengths                                  F
 GLOBAL| Global print level                                               MEDIUM
 GLOBAL| Total number of message passing processes                             1
 GLOBAL| Number of threads for this process                                    1
 GLOBAL| This output is from process                                           0

 MEMORY| system memory details [Kb]
 MEMORY|                        rank 0           min           max       average
 MEMORY| MemTotal              8070360       8070360       8070360       8070360
 MEMORY| MemFree               3042632       3042632       3042632       3042632
 MEMORY| Buffers                898364        898364        898364        898364
 MEMORY| Cached                1846688       1846688       1846688       1846688
 MEMORY| Slab                   471168        471168        471168        471168
 MEMORY| SReclaimable           432936        432936        432936        432936
 MEMORY| MemLikelyFree         6220620       6220620       6220620       6220620


 *** Fundamental physical constants (SI units) ***

 *** Literature: B. J. Mohr and B. N. Taylor,
 ***             CODATA recommended values of the fundamental physical
 ***             constants: 2006, Web Version 5.1
 ***             http://physics.nist.gov/constants

 Speed of light in vacuum [m/s]                             2.99792458000000E+08
 Magnetic constant or permeability of vacuum [N/A**2]       1.25663706143592E-06
 Electric constant or permittivity of vacuum [F/m]          8.85418781762039E-12
 Planck constant (h) [J*s]                                  6.62606896000000E-34
 Planck constant (h-bar) [J*s]                              1.05457162825177E-34
 Elementary charge [C]                                      1.60217648700000E-19
 Electron mass [kg]                                         9.10938215000000E-31
 Electron g factor [ ]                                     -2.00231930436220E+00
 Proton mass [kg]                                           1.67262163700000E-27
 Fine-structure constant                                    7.29735253760000E-03
 Rydberg constant [1/m]                                     1.09737315685270E+07
 Avogadro constant [1/mol]                                  6.02214179000000E+23
 Boltzmann constant [J/K]                                   1.38065040000000E-23
 Atomic mass unit [kg]                                      1.66053878200000E-27
 Bohr radius [m]                                            5.29177208590000E-11

 *** Conversion factors ***

 [u] -> [a.u.]                                              1.82288848426455E+03
 [Angstrom] -> [Bohr] = [a.u.]                              1.88972613288564E+00
 [a.u.] = [Bohr] -> [Angstrom]                              5.29177208590000E-01
 [a.u.] -> [s]                                              2.41888432650478E-17
 [a.u.] -> [fs]                                             2.41888432650478E-02
 [a.u.] -> [J]                                              4.35974393937059E-18
 [a.u.] -> [N]                                              8.23872205491840E-08
 [a.u.] -> [K]                                              3.15774647902944E+05
 [a.u.] -> [kJ/mol]                                         2.62549961709828E+03
 [a.u.] -> [kcal/mol]                                       6.27509468713739E+02
 [a.u.] -> [Pa]                                             2.94210107994716E+13
 [a.u.] -> [bar]                                            2.94210107994716E+08
 [a.u.] -> [atm]                                            2.90362800883016E+08
 [a.u.] -> [eV]                                             2.72113838565563E+01
 [a.u.] -> [Hz]                                             6.57968392072181E+15
 [a.u.] -> [1/cm] (wave numbers)                            2.19474631370540E+05
 [a.u./Bohr**2] -> [1/cm]                                   5.14048714338585E+03
 

 CELL_TOP| Volume [angstrom^3]:                                         1912.997
 CELL_TOP| Vector a [angstrom    12.414     0.000     0.000    |a| =      12.414
 CELL_TOP| Vector b [angstrom     0.000    12.414     0.000    |b| =      12.414
 CELL_TOP| Vector c [angstrom     0.000     0.000    12.414    |c| =      12.414
 CELL_TOP| Angle (b,c), alpha [degree]:                                   90.000
 CELL_TOP| Angle (a,c), beta  [degree]:                                   90.000
 CELL_TOP| Angle (a,b), gamma [degree]:                                   90.000
 CELL_TOP| Numerically orthorhombic:                                         YES

 GENERATE|  Preliminary Number of Bonds generated:                             0
 GENERATE|  Achieved consistency in connectivity generation.

 CELL| Volume [angstrom^3]:                                             1912.997
 CELL| Vector a [angstrom]:      12.414     0.000     0.000    |a| =      12.414
 CELL| Vector b [angstrom]:       0.000    12.414     0.000    |b| =      12.414
 CELL| Vector c [angstrom]:       0.000     0.000    12.414    |c| =      12.414
 CELL| Angle (b,c), alpha [degree]:                                       90.000
 CELL| Angle (a,c), beta  [degree]:                                       90.000
 CELL| Angle (a,b), gamma [degree]:                                       90.000
 CELL| Numerically orthorhombic:                                             YES

 CELL_REF| Volume [angstrom^3]:                                         1912.997
 CELL_REF| Vector a [angstrom    12.414     0.000     0.000    |a| =      12.414
 CELL_REF| Vector b [angstrom     0.000    12.414     0.000    |b| =      12.414
 CELL_REF| Vector c [angstrom     0.000     0.000    12.414    |c| =      12.414
 CELL_REF| Angle (b,c), alpha [degree]:                                   90.000
 CELL_REF| Angle (a,c), beta  [degree]:                                   90.000
 CELL_REF| Angle (a,b), gamma [degree]:                                   90.000
 CELL_REF| Numerically orthorhombic:                                         YES

 *******************************************************************************
 *******************************************************************************
 **                                                                           **
 **     #####                         ##              ##                      **
 **    ##   ##            ##          ##              ##                      **
 **   ##     ##                       ##            ######                    **
 **   ##     ##  ##   ##  ##   #####  ##  ##   ####   ##    #####    #####    **
 **   ##     ##  ##   ##  ##  ##      ## ##   ##      ##   ##   ##  ##   ##   **
 **   ##  ## ##  ##   ##  ##  ##      ####     ###    ##   ######   ######    **
 **    ##  ###   ##   ##  ##  ##      ## ##      ##   ##   ##       ##        **
 **     #######   #####   ##   #####  ##  ##  ####    ##    #####   ##        **
 **           ##                                                    ##        **
 **                                                                           **
 **                                                ... make the atoms dance   **
 **                                                                           **
 **            Copyright (C) by CP2K Developers Group (2000 - 2014)           **
 **                                                                           **
 *******************************************************************************

 DFT| Spin restricted Kohn-Sham (RKS) calculation                            RKS
 DFT| Multiplicity                                                             1
 DFT| Number of spin states                                                    1
 DFT| Charge                                                                   0
 DFT| Self-interaction correction (SIC)                                       NO
 DFT| Cutoffs: density                                              1.000000E-10
 DFT|          gradient                                             1.000000E-10
 DFT|          tau                                                  1.000000E-10
 DFT|          cutoff_smoothing_range                               0.000000E+00
 DFT| XC density smoothing                                                  NONE
 DFT| XC derivatives                                                          PW
 FUNCTIONAL| ROUTINE=NEW
 FUNCTIONAL| PADE:
 FUNCTIONAL| S. Goedecker, M. Teter and J. Hutter, Phys. Rev. B 54, 1703 (1996)

 QS| Method:                                                                 GPW
 QS| Density plane wave grid type                        NON-SPHERICAL FULLSPACE
 QS| Number of grid levels:                                                    4
 QS| Density cutoff [a.u.]:                                                 50.0
 QS| Multi grid cutoff [a.u.]: 1) grid level                                50.0
 QS|                           2) grid level                                16.7
 QS|                           3) grid level                                 5.6
 QS|                           4) grid level                                 1.9
 QS| Grid level progression factor:                                          3.0
 QS| Relative density cutoff [a.u.]:                                        15.0
 QS| Consistent realspace mapping and integration 
 QS| Interaction thresholds: eps_pgf_orb:                                3.2E-04
 QS|                         eps_filter_matrix:                          0.0E+00
 QS|                         eps_core_charge:                            1.0E-09
 QS|                         eps_rho_gspace:                             1.0E-07
 QS|                         eps_rho_rspace:                             1.0E-07
 QS|                         eps_gvg_rspace:                             3.2E-04
 QS|                         eps_ppl:                                    1.0E-02
 QS|                         eps_ppnl:                                   3.2E-06


 ATOMIC KIND INFORMATION

  1. Atomic kind: O                                     Number of atoms:       1

     Orbital Basis Set                                             DZVP-GTH-PADE

       Number of orbital shell sets:                                           2
       Number of orbital shells:                                               5
       Number of primitive Cartesian functions:                                5
       Number of Cartesian basis functions:                                   14
       Number of spherical basis functions:                                   13
       Norm type:                                                              2

       Normalised Cartesian orbitals:

                        Set   Shell   Orbital            Exponent    Coefficient

                          1       1    2s                8.304404       0.526521
                                                         2.457945      -0.055011
                                                         0.759736      -0.404341
                                                         0.213639      -0.086026

                          1       2    3s                8.304404       0.000000
                                                         2.457945       0.000000
                                                         0.759736       0.000000
                                                         0.213639       0.223960

                          1       3    3px               8.304404      -2.000758
                                                         2.457945      -1.321077
                                                         0.759736      -0.480331
                                                         0.213639      -0.078647
                          1       3    3py               8.304404      -2.000758
                                                         2.457945      -1.321077
                                                         0.759736      -0.480331
                                                         0.213639      -0.078647
                          1       3    3pz               8.304404      -2.000758
                                                         2.457945      -1.321077
                                                         0.759736      -0.480331
                                                         0.213639      -0.078647

                          1       4    4px               8.304404       0.000000
                                                         2.457945       0.000000
                                                         0.759736       0.000000
                                                         0.213639       0.207033
                          1       4    4py               8.304404       0.000000
                                                         2.457945       0.000000
                                                         0.759736       0.000000
                                                         0.213639       0.207033
                          1       4    4pz               8.304404       0.000000
                                                         2.457945       0.000000
                                                         0.759736       0.000000
                                                         0.213639       0.207033

                          2       1    3dx2              0.800000       1.113825
                          2       1    3dxy              0.800000       1.929201
                          2       1    3dxz              0.800000       1.929201
                          2       1    3dy2              0.800000       1.113825
                          2       1    3dyz              0.800000       1.929201
                          2       1    3dz2              0.800000       1.113825

     Potential information for                                       GTH-PADE-q6

       Description:                       Goedecker-Teter-Hutter pseudopotential
                                           Goedecker et al., PRB 54, 1703 (1996)
                                          Hartwigsen et al., PRB 58, 3641 (1998)
                                                      Krack, TCA 114, 145 (2005)

       Gaussian exponent of the core charge distribution:               8.154466
       Electronic configuration (s p d ...):                               2   4

       Parameters of the local part of the GTH pseudopotential:

                          rloc        C1          C2          C3          C4
                        0.247621  -16.580318    2.395701

       Parameters of the non-local part of the GTH pseudopotential:

                   l      r(l)      h(i,j,l)

                   0    0.221786   18.266917
                   1    0.256829

  2. Atomic kind: H                                     Number of atoms:       2

     Orbital Basis Set                                             DZVP-GTH-PADE

       Number of orbital shell sets:                                           2
       Number of orbital shells:                                               3
       Number of primitive Cartesian functions:                                5
       Number of Cartesian basis functions:                                    5
       Number of spherical basis functions:                                    5
       Norm type:                                                              2

       Normalised Cartesian orbitals:

                        Set   Shell   Orbital            Exponent    Coefficient

                          1       1    1s                8.374435      -0.083834
                                                         1.805868      -0.155208
                                                         0.485253      -0.104875
                                                         0.165824      -0.128813

                          1       2    2s                8.374435       0.000000
                                                         1.805868       0.000000
                                                         0.485253       0.000000
                                                         0.165824       0.185202

                          2       1    2px               0.700000       0.912668
                          2       1    2py               0.700000       0.912668
                          2       1    2pz               0.700000       0.912668

     Potential information for                                       GTH-PADE-q1

       Description:                       Goedecker-Teter-Hutter pseudopotential
                                           Goedecker et al., PRB 54, 1703 (1996)
                                          Hartwigsen et al., PRB 58, 3641 (1998)
                                                      Krack, TCA 114, 145 (2005)

       Gaussian exponent of the core charge distribution:              12.500000
       Electronic configuration (s p d ...):                                   1

       Parameters of the local part of the GTH pseudopotential:

                          rloc        C1          C2          C3          C4
                        0.200000   -4.180237    0.725075


 MOLECULE KIND INFORMATION


 All atoms are their own molecule, skipping detailed information


 TOTAL NUMBERS AND MAXIMUM NUMBERS

  Total number of            - Atomic kinds:                                   2
                             - Atoms:                                          3
                             - Shell sets:                                     6
                             - Shells:                                        11
                             - Primitive Cartesian functions:                 15
                             - Cartesian basis functions:                     24
                             - Spherical basis functions:                     23

  Maximum angular momentum of- Orbital basis functions:                        2
                             - Local part of the GTH pseudopotential:          2
                             - Non-local part of the GTH pseudopotential:      0


 MODULE QUICKSTEP:  ATOMIC COORDINATES IN angstrom

  Atom  Kind  Element       X           Y           Z          Z(eff)       Mass

       1     1 O    8   12.235322    1.376642   10.869880      6.00      15.9994
       2     2 H    1   12.415139    2.233125   11.257611      1.00       1.0079
       3     2 H    1   11.922476    1.573799    9.986994      1.00       1.0079




 SCF PARAMETERS         Density guess:                                    ATOMIC
                        --------------------------------------------------------
                        max_scf:                                             200
                        max_scf_history:                                       0
                        max_diis:                                              4
                        --------------------------------------------------------
                        eps_scf:                                        1.00E-05
                        eps_scf_history:                                0.00E+00
                        eps_diis:                                       1.00E-01
                        eps_eigval:                                     1.00E-05
                        --------------------------------------------------------
                        level_shift [a.u.]:                                 0.00
                        --------------------------------------------------------
                        Mixing method:                              PULAY_MIXING
                                                charge density mixing in g-space
                        --------------------------------------------------------
                        No outer SCF

 PW_GRID| Information for grid number                                          1
 PW_GRID| Cutoff [a.u.]                                                     50.0
 PW_GRID| spherical cutoff:                                                   NO
 PW_GRID|   Bounds   1            -37      37                Points:          75
 PW_GRID|   Bounds   2            -37      37                Points:          75
 PW_GRID|   Bounds   3            -37      37                Points:          75
 PW_GRID| Volume element (a.u.^3)  0.3060E-01     Volume (a.u.^3)     12909.5421
 PW_GRID| Grid span                                                    FULLSPACE

 PW_GRID| Information for grid number                                          2
 PW_GRID| Cutoff [a.u.]                                                     16.7
 PW_GRID| spherical cutoff:                                                   NO
 PW_GRID|   Bounds   1            -22      22                Points:          45
 PW_GRID|   Bounds   2            -22      22                Points:          45
 PW_GRID|   Bounds   3            -22      22                Points:          45
 PW_GRID| Volume element (a.u.^3)  0.1417         Volume (a.u.^3)     12909.5421
 PW_GRID| Grid span                                                    FULLSPACE

 PW_GRID| Information for grid number                                          3
 PW_GRID| Cutoff [a.u.]                                                      5.6
 PW_GRID| spherical cutoff:                                                   NO
 PW_GRID|   Bounds   1            -12      12                Points:          25
 PW_GRID|   Bounds   2            -12      12                Points:          25
 PW_GRID|   Bounds   3            -12      12                Points:          25
 PW_GRID| Volume element (a.u.^3)  0.8262         Volume (a.u.^3)     12909.5421
 PW_GRID| Grid span                                                    FULLSPACE

 PW_GRID| Information for grid number                                          4
 PW_GRID| Cutoff [a.u.]                                                      1.9
 PW_GRID| spherical cutoff:                                                   NO
 PW_GRID|   Bounds   1             -7       7                Points:          15
 PW_GRID|   Bounds   2             -7       7                Points:          15
 PW_GRID|   Bounds   3             -7       7                Points:          15
 PW_GRID| Volume element (a.u.^3)   3.825         Volume (a.u.^3)     12909.5421
 PW_GRID| Grid span                                                    FULLSPACE

 POISSON| Solver                                                        PERIODIC
 POISSON| Periodicity                                                        XYZ

 RS_GRID| Information for grid number                                          1
 RS_GRID|   Bounds   1            -37      37                Points:          75
 RS_GRID|   Bounds   2            -37      37                Points:          75
 RS_GRID|   Bounds   3            -37      37                Points:          75

 RS_GRID| Information for grid number                                          2
 RS_GRID|   Bounds   1            -22      22                Points:          45
 RS_GRID|   Bounds   2            -22      22                Points:          45
 RS_GRID|   Bounds   3            -22      22                Points:          45

 RS_GRID| Information for grid number                                          3
 RS_GRID|   Bounds   1            -12      12                Points:          25
 RS_GRID|   Bounds   2            -12      12                Points:          25
 RS_GRID|   Bounds   3            -12      12                Points:          25

 RS_GRID| Information for grid number                                          4
 RS_GRID|   Bounds   1             -7       7                Points:          15
 RS_GRID|   Bounds   2             -7       7                Points:          15
 RS_GRID|   Bounds   3             -7       7                Points:          15

 DISTRIBUTION OF THE PARTICLES (ROWS)
              Process row      Number of particles         Number of matrix rows
                        0                        3                            -1
                      Sum                        3                            -1

 DISTRIBUTION OF THE PARTICLES (COLUMNS)
              Process col      Number of particles      Number of matrix columns
                        0                        3                            -1
                      Sum                        3                            -1

 *******************************************************************************
 ***                     STARTING GEOMETRY OPTIMIZATION                      ***
 ***                                 L-BFGS                                  ***
 *******************************************************************************

 --------------------------
 OPTIMIZATION STEP:      1
 --------------------------

 DISTRIBUTION OF THE NEIGHBOR LISTS
              Total number of particle pairs:                                  6
              Total number of matrix elements:                               374
              Average number of particle pairs:                                6
              Maximum number of particle pairs:                                6
              Average number of matrix element:                              374
              Maximum number of matrix elements:                             374


 DISTRIBUTION OF THE OVERLAP MATRIX
              Number  of non-zero blocks:                                      6
              Percentage non-zero blocks:                                 100.00
              Average number of blocks per CPU:                                6
              Maximum number of blocks per CPU:                                6
              Average number of matrix elements per CPU:                     384
              Maximum number of matrix elements per CPU:                     384

 Number of electrons:                                                          8
 Number of occupied orbitals:                                                  4
 Number of molecular orbitals:                                                 4

 Number of orbital functions:                                                 23
 Number of independent orbital functions:                                     23

 Extrapolation method: initial_guess

 Atomic guess: The first density matrix is obtained in terms of atomic orbitals
               and electronic configurations assigned to each atomic kind

 Guess for atomic kind: O

 Electronic structure
    Total number of core electrons                                          2.00
    Total number of valence electrons                                       6.00
    Total number of electrons                                               8.00
    Multiplicity                                                   not specified
    S   [  2.00] 2.00
    P      4.00


 *******************************************************************************
                  Iteration          Convergence                     Energy [au]
 *******************************************************************************
                          1         1.68085                     -14.857481728656
                          2         2.15642                     -14.936142370053
                          3        0.890654E-01                 -15.701381433081
                          4        0.300038E-02                 -15.702655347039
                          5        0.124050E-02                 -15.702656532555
                          6        0.771851E-03                 -15.702656682204
                          7        0.254544E-04                 -15.702656776553
                          8        0.154783E-06                 -15.702656776662

 Energy components [Hartree]           Total Energy ::          -15.702656776662
                                        Band Energy ::           -2.982159100248
                                     Kinetic Energy ::           11.942300538966
                                   Potential Energy ::          -27.644957315628
                                      Virial (-V/T) ::            2.314877039430
                                        Core Energy ::          -26.240316547129
                                          XC Energy ::           -3.168822356033
                                     Coulomb Energy ::           13.706482126500
                       Total Pseudopotential Energy ::          -38.217120617695
                       Local Pseudopotential Energy ::          -39.522374145046
                    Nonlocal Pseudopotential Energy ::            1.305253527351
                                        Confinement ::            0.345035316001

 Orbital energies  State     L     Occupation   Energy[a.u.]          Energy[eV]

                       1     0          2.000      -0.854038          -23.239548

                       1     1          4.000      -0.318521           -8.667395


 Guess for atomic kind: H

 Electronic structure
    Total number of core electrons                                          0.00
    Total number of valence electrons                                       1.00
    Total number of electrons                                               1.00
    Multiplicity                                                   not specified
    S      1.00


 *******************************************************************************
                  Iteration          Convergence                     Energy [au]
 *******************************************************************************
                          1        0.316011E-02                  -0.422390558413
                          2        0.333152E-03                  -0.422399635530
                          3        0.114302E-06                  -0.422399737491

 Energy components [Hartree]           Total Energy ::           -0.422399737491
                                        Band Energy ::           -0.193019372217
                                     Kinetic Energy ::            0.475009752129
                                   Potential Energy ::           -0.897409489620
                                      Virial (-V/T) ::            1.889244348347
                                        Core Energy ::           -0.478923189740
                                          XC Energy ::           -0.248206713182
                                     Coulomb Energy ::            0.304730165431
                       Total Pseudopotential Energy ::           -0.971460622099
                       Local Pseudopotential Energy ::           -0.971460622099
                    Nonlocal Pseudopotential Energy ::            0.000000000000
                                        Confinement ::            0.175276802303

 Orbital energies  State     L     Occupation   Energy[a.u.]          Energy[eV]

                       1     0          1.000      -0.193019           -5.252324

 Re-scaling the density matrix to get the right number of electrons
                  # Electrons              Trace(P)               Scaling factor
                            8                 8.000                        1.000


 SCF WAVEFUNCTION OPTIMIZATION

  Step     Update method      Time    Convergence         Total energy    Change
  ------------------------------------------------------------------------------

  Trace(PS):                                    8.0000000000
  Electronic density on regular grids:         -8.0000036792       -0.0000036792
  Core density on regular grids:                8.0002817176        0.0002817176
  Total charge density on r-space grids:        0.0002780384
  Total charge density g-space grids:           0.0002780384

     1 NoMix/Diag. 0.50E+00    0.1     1.13047649       -17.0019631348 -1.70E+01

  Trace(PS):                                    8.0000000000
  Electronic density on regular grids:         -7.9998887767        0.0001112233
  Core density on regular grids:                8.0002817176        0.0002817176
  Total charge density on r-space grids:        0.0003929409
  Total charge density g-space grids:           0.0003929409

     2 Pulay/Diag. 0.50E+00    0.2     0.38473426       -15.9278802655  1.07E+00

  Trace(PS):                                    8.0000000000
  Electronic density on regular grids:         -7.9997670154        0.0002329846
  Core density on regular grids:                8.0002817176        0.0002817176
  Total charge density on r-space grids:        0.0005147022
  Total charge density g-space grids:           0.0005147022

     3 Pulay/Diag. 0.50E+00    0.2     0.07793383       -17.4323706972 -1.50E+00

  Trace(PS):                                    8.0000000000
  Electronic density on regular grids:         -7.9997731213        0.0002268787
  Core density on regular grids:                8.0002817176        0.0002817176
  Total charge density on r-space grids:        0.0005085963
  Total charge density g-space grids:           0.0005085963

     4 Pulay/Diag. 0.50E+00    0.2     0.00860113       -17.1491094344  2.83E-01

  Trace(PS):                                    8.0000000000
  Electronic density on regular grids:         -7.9997706989        0.0002293011
  Core density on regular grids:                8.0002817176        0.0002817176
  Total charge density on r-space grids:        0.0005110188
  Total charge density g-space grids:           0.0005110188

     5 Pulay/Diag. 0.50E+00    0.2     0.00397228       -17.1763539146 -2.72E-02

  Trace(PS):                                    8.0000000000
  Electronic density on regular grids:         -7.9997705264        0.0002294736
  Core density on regular grids:                8.0002817176        0.0002817176
  Total charge density on r-space grids:        0.0005111912
  Total charge density g-space grids:           0.0005111912

     6 Pulay/Diag. 0.50E+00    0.2     0.00118787       -17.1538069467  2.25E-02

  Trace(PS):                                    8.0000000000
  Electronic density on regular grids:         -7.9997700852        0.0002299148
  Core density on regular grids:                8.0002817176        0.0002817176
  Total charge density on r-space grids:        0.0005116324
  Total charge density g-space grids:           0.0005116324

     7 Pulay/Diag. 0.50E+00    0.2     0.00058182       -17.1500462631  3.76E-03

  Trace(PS):                                    8.0000000000
  Electronic density on regular grids:         -7.9997697568        0.0002302432
  Core density on regular grids:                8.0002817176        0.0002817176
  Total charge density on r-space grids:        0.0005119608
  Total charge density g-space grids:           0.0005119608

     8 Pulay/Diag. 0.50E+00    0.2     0.00051741       -17.1497234460  3.23E-04

  Trace(PS):                                    8.0000000000
  Electronic density on regular grids:         -7.9997696752        0.0002303248
  Core density on regular grids:                8.0002817176        0.0002817176
  Total charge density on r-space grids:        0.0005120424
  Total charge density g-space grids:           0.0005120424

     9 Pulay/Diag. 0.50E+00    0.2     0.00020949       -17.1488945472  8.29E-04

  Trace(PS):                                    8.0000000000
  Electronic density on regular grids:         -7.9997696145        0.0002303855
  Core density on regular grids:                8.0002817176        0.0002817176
  Total charge density on r-space grids:        0.0005121031
  Total charge density g-space grids:           0.0005121031

    10 Pulay/Diag. 0.50E+00    0.2     0.00007913       -17.1490319035 -1.37E-04

  Trace(PS):                                    8.0000000000
  Electronic density on regular grids:         -7.9997696054        0.0002303946
  Core density on regular grids:                8.0002817176        0.0002817176
  Total charge density on r-space grids:        0.0005121122
  Total charge density g-space grids:           0.0005121122

    11 Pulay/Diag. 0.50E+00    0.2     0.00003440       -17.1488486191  1.83E-04

  Trace(PS):                                    8.0000000000
  Electronic density on regular grids:         -7.9997695916        0.0002304084
  Core density on regular grids:                8.0002817176        0.0002817176
  Total charge density on r-space grids:        0.0005121260
  Total charge density g-space grids:           0.0005121260

    12 Pulay/Diag. 0.50E+00    0.2     0.00001646       -17.1488818860 -3.33E-05

  Trace(PS):                                    8.0000000000
  Electronic density on regular grids:         -7.9997695897        0.0002304103
  Core density on regular grids:                8.0002817176        0.0002817176
  Total charge density on r-space grids:        0.0005121279
  Total charge density g-space grids:           0.0005121279

    13 Pulay/Diag. 0.50E+00    0.2     0.00000459       -17.1488284649  5.34E-05

  *** SCF run converged in    13 steps ***


  Electronic density on regular grids:         -7.9997695897        0.0002304103
  Core density on regular grids:                8.0002817176        0.0002817176
  Total charge density on r-space grids:        0.0005121279
  Total charge density g-space grids:           0.0005121279

  Overlap energy of the core charge distribution:               0.00000008790619
  Self energy of the core charge distribution:                -43.83289054591484
  Core Hamiltonian energy:                                     12.86724943365228
  Hartree energy:                                              17.95658455742420
  Exchange-correlation energy:                                 -4.13977199794821

  Total energy:                                               -17.14882846488038


 MULLIKEN POPULATION ANALYSIS

 #  Atom  Element  Kind  Atomic population                Net charge
       1     O        1          6.650970                 -0.650970
       2     H        2          0.676279                  0.323721
       3     H        2          0.672752                  0.327248
 # Total charge                  8.000000                  0.000000


 !-----------------------------------------------------------------------------!
                           Hirschfeld Charges

  #Atom  Element  Kind  Ref Charge     Population                     Net charge
      1       O      1       6.000          6.557                         -0.557
      2       H      2       1.000          0.722                          0.278
      3       H      2       1.000          0.721                          0.279

  Total Charge                                                             0.000
 !-----------------------------------------------------------------------------!

  Trace(PS):                                    8.0000000000
  Electronic density on regular grids:         -7.9997695888        0.0002304112
  Core density on regular grids:                8.0002817176        0.0002817176
  Total charge density on r-space grids:        0.0005121288
  Total charge density g-space grids:           0.0005121288


 ENERGY| Total FORCE_EVAL ( QS ) energy (a.u.):              -17.148823763526391


 DISTRIBUTION OF THE NEIGHBOR LISTS
              Total number of particle pairs:                                  6
              Total number of matrix elements:                               374
              Average number of particle pairs:                                6
              Maximum number of particle pairs:                                6
              Average number of matrix element:                              374
              Maximum number of matrix elements:                             374


 DISTRIBUTION OF THE OVERLAP MATRIX
              Number  of non-zero blocks:                                      6
              Percentage non-zero blocks:                                 100.00
              Average number of blocks per CPU:                                6
              Maximum number of blocks per CPU:                                6
              Average number of matrix elements per CPU:                     384
              Maximum number of matrix elements per CPU:                     384

 Number of electrons:                                                          8
 Number of occupied orbitals:                                                  4
 Number of molecular orbitals:                                                 4

 Number of orbital functions:                                                 23
 Number of independent orbital functions:                                     23

 Parameters for the always stable predictor-corrector (ASPC) method:

  ASPC order: 0

  B(1) =   1.000000

 Extrapolation method: ASPC


 SCF WAVEFUNCTION OPTIMIZATION

  Step     Update method      Time    Convergence         Total energy    Change
  ------------------------------------------------------------------------------

  Trace(PS):                                    8.0000000000
  Electronic density on regular grids:         -7.9997135420        0.0002864580
  Core density on regular grids:                7.9983307789       -0.0016692211
  Total charge density on r-space grids:       -0.0013827631
  Total charge density g-space grids:          -0.0013827631

     1 Pulay/Diag. 0.50E+00    0.1     1.02438174       -15.9808117944 -1.60E+01

  Trace(PS):                                    8.0000000000
  Electronic density on regular grids:         -7.9998596389        0.0001403611
  Core density on regular grids:                7.9983307789       -0.0016692211
  Total charge density on r-space grids:       -0.0015288600
  Total charge density g-space grids:          -0.0015288600

     2 Pulay/Diag. 0.50E+00    0.2     0.36025195       -14.8429750842  1.14E+00

  Trace(PS):                                    8.0000000000
  Electronic density on regular grids:         -8.0000110613       -0.0000110613
  Core density on regular grids:                7.9983307789       -0.0016692211
  Total charge density on r-space grids:       -0.0016802824
  Total charge density g-space grids:          -0.0016802824

     3 Pulay/Diag. 0.50E+00    0.2     0.13135782       -16.2422948839 -1.40E+00

  Trace(PS):                                    8.0000000000
  Electronic density on regular grids:         -8.0000064083       -0.0000064083
  Core density on regular grids:                7.9983307789       -0.0016692211
  Total charge density on r-space grids:       -0.0016756294
  Total charge density g-space grids:          -0.0016756294

     4 Pulay/Diag. 0.50E+00    0.2     0.02655221       -16.0424998949  2.00E-01

  Trace(PS):                                    8.0000000000
  Electronic density on regular grids:         -8.0000082676       -0.0000082676
  Core density on regular grids:                7.9983307789       -0.0016692211
  Total charge density on r-space grids:       -0.0016774887
  Total charge density g-space grids:          -0.0016774887

     5 Pulay/Diag. 0.50E+00    0.2     0.00273894       -16.1131860933 -7.07E-02

  Trace(PS):                                    8.0000000000
  Electronic density on regular grids:         -8.0000081011       -0.0000081011
  Core density on regular grids:                7.9983307789       -0.0016692211
  Total charge density on r-space grids:       -0.0016773222
  Total charge density g-space grids:          -0.0016773222

     6 Pulay/Diag. 0.50E+00    0.2     0.00104991       -16.1070709965  6.12E-03

  Trace(PS):                                    8.0000000000
  Electronic density on regular grids:         -8.0000081133       -0.0000081133
  Core density on regular grids:                7.9983307789       -0.0016692211
  Total charge density on r-space grids:       -0.0016773344
  Total charge density g-space grids:          -0.0016773344

     7 Pulay/Diag. 0.50E+00    0.2     0.00039517       -16.1059394466  1.13E-03

  Trace(PS):                                    8.0000000000
  Electronic density on regular grids:         -8.0000081123       -0.0000081123
  Core density on regular grids:                7.9983307789       -0.0016692211
  Total charge density on r-space grids:       -0.0016773334
  Total charge density g-space grids:          -0.0016773334

     8 Pulay/Diag. 0.50E+00    0.2     0.00014575       -16.1058064982  1.33E-04

  Trace(PS):                                    8.0000000000
  Electronic density on regular grids:         -8.0000080991       -0.0000080991
  Core density on regular grids:                7.9983307789       -0.0016692211
  Total charge density on r-space grids:       -0.0016773202
  Total charge density g-space grids:          -0.0016773202

     9 Pulay/Diag. 0.50E+00    0.2     0.00013091       -16.1058537178 -4.72E-05

  Trace(PS):                                    8.0000000000
  Electronic density on regular grids:         -8.0000080942       -0.0000080942
  Core density on regular grids:                7.9983307789       -0.0016692211
  Total charge density on r-space grids:       -0.0016773153
  Total charge density g-space grids:          -0.0016773153

    10 Pulay/Diag. 0.50E+00    0.2     0.00004572       -16.1057518840  1.02E-04

  Trace(PS):                                    8.0000000000
  Electronic density on regular grids:         -8.0000080953       -0.0000080953
  Core density on regular grids:                7.9983307789       -0.0016692211
  Total charge density on r-space grids:       -0.0016773164
  Total charge density g-space grids:          -0.0016773164

    11 Pulay/Diag. 0.50E+00    0.2     0.00002172       -16.1058708533 -1.19E-04

  Trace(PS):                                    8.0000000000
  Electronic density on regular grids:         -8.0000080931       -0.0000080931
  Core density on regular grids:                7.9983307789       -0.0016692211
  Total charge density on r-space grids:       -0.0016773142
  Total charge density g-space grids:          -0.0016773142

    12 Pulay/Diag. 0.50E+00    0.2     0.00001226       -16.1058549367  1.59E-05

  Trace(PS):                                    8.0000000000
  Electronic density on regular grids:         -8.0000080934       -0.0000080934
  Core density on regular grids:                7.9983307789       -0.0016692211
  Total charge density on r-space grids:       -0.0016773145
  Total charge density g-space grids:          -0.0016773145

    13 Pulay/Diag. 0.50E+00    0.2     0.00000409       -16.1058635155 -8.58E-06

  *** SCF run converged in    13 steps ***


  Electronic density on regular grids:         -8.0000080934       -0.0000080934
  Core density on regular grids:                7.9983307789       -0.0016692211
  Total charge density on r-space grids:       -0.0016773145
  Total charge density g-space grids:          -0.0016773145

  Overlap energy of the core charge distribution:               0.03901110633645
  Self energy of the core charge distribution:                -43.83289054591484
  Core Hamiltonian energy:                                     14.43640640573233
  Hartree energy:                                              17.70325710967700
  Exchange-correlation energy:                                 -4.45164759128235

  Total energy:                                               -16.10586351545140


 MULLIKEN POPULATION ANALYSIS

 #  Atom  Element  Kind  Atomic population                Net charge
       1     O        1          6.396782                 -0.396782
       2     H        2          0.676270                  0.323730
       3     H        2          0.926947                  0.073053
 # Total charge                  8.000000                 -0.000000


 !-----------------------------------------------------------------------------!
                           Hirschfeld Charges

  #Atom  Element  Kind  Ref Charge     Population                     Net charge
      1       O      1       6.000          6.437                         -0.437
      2       H      2       1.000          0.664                          0.336
      3       H      2       1.000          0.899                          0.101

  Total Charge                                                             0.000
 !-----------------------------------------------------------------------------!

  Trace(PS):                                    8.0000000000
  Electronic density on regular grids:         -8.0000080931       -0.0000080931
  Core density on regular grids:                7.9983307789       -0.0016692211
  Total charge density on r-space grids:       -0.0016773142
  Total charge density g-space grids:          -0.0016773142


 ENERGY| Total FORCE_EVAL ( QS ) energy (a.u.):              -16.105859048632666


 DISTRIBUTION OF THE NEIGHBOR LISTS
              Total number of particle pairs:                                  6
              Total number of matrix elements:                               374
              Average number of particle pairs:                                6
              Maximum number of particle pairs:                                6
              Average number of matrix element:                              374
              Maximum number of matrix elements:                             374


 DISTRIBUTION OF THE OVERLAP MATRIX
              Number  of non-zero blocks:                                      6
              Percentage non-zero blocks:                                 100.00
              Average number of blocks per CPU:                                6
              Maximum number of blocks per CPU:                                6
              Average number of matrix elements per CPU:                     384
              Maximum number of matrix elements per CPU:                     384

 Number of electrons:                                                          8
 Number of occupied orbitals:                                                  4
 Number of molecular orbitals:                                                 4

 Number of orbital functions:                                                 23
 Number of independent orbital functions:                                     23

 Parameters for the always stable predictor-corrector (ASPC) method:

  ASPC order: 0

  B(1) =   2.000000
  B(2) =  -1.000000

 Extrapolation method: ASPC


 SCF WAVEFUNCTION OPTIMIZATION

  Step     Update method      Time    Convergence         Total energy    Change
  ------------------------------------------------------------------------------

  Trace(PS):                                    8.0000000000
  Electronic density on regular grids:         -8.0004429033       -0.0004429033
  Core density on regular grids:                8.0007387400        0.0007387400
  Total charge density on r-space grids:        0.0002958367
  Total charge density g-space grids:           0.0002958367

     1 Pulay/Diag. 0.50E+00    0.1     2.15391367       -16.7695790171 -1.68E+01

  Trace(PS):                                    8.0000000000
  Electronic density on regular grids:         -8.0001106542       -0.0001106542
  Core density on regular grids:                8.0007387400        0.0007387400
  Total charge density on r-space grids:        0.0006280858
  Total charge density g-space grids:           0.0006280858

     2 Pulay/Diag. 0.50E+00    0.2     0.47543526       -18.7587109969 -1.99E+00

  Trace(PS):                                    8.0000000000
  Electronic density on regular grids:         -7.9997859423        0.0002140577
  Core density on regular grids:                8.0007387400        0.0007387400
  Total charge density on r-space grids:        0.0009527977
  Total charge density g-space grids:           0.0009527977

     3 Pulay/Diag. 0.50E+00    0.2     0.10866824       -16.7300357242  2.03E+00

  Trace(PS):                                    8.0000000000
  Electronic density on regular grids:         -7.9997998626        0.0002001374
  Core density on regular grids:                8.0007387400        0.0007387400
  Total charge density on r-space grids:        0.0009388774
  Total charge density g-space grids:           0.0009388774

     4 Pulay/Diag. 0.50E+00    0.2     0.02156302       -17.1677749796 -4.38E-01

  Trace(PS):                                    8.0000000000
  Electronic density on regular grids:         -7.9997985697        0.0002014303
  Core density on regular grids:                8.0007387400        0.0007387400
  Total charge density on r-space grids:        0.0009401703
  Total charge density g-space grids:           0.0009401703

     5 Pulay/Diag. 0.50E+00    0.2     0.00376829       -17.1227457414  4.50E-02

  Trace(PS):                                    8.0000000000
  Electronic density on regular grids:         -7.9997986605        0.0002013395
  Core density on regular grids:                8.0007387400        0.0007387400
  Total charge density on r-space grids:        0.0009400795
  Total charge density g-space grids:           0.0009400795

     6 Pulay/Diag. 0.50E+00    0.2     0.00053644       -17.1299433556 -7.20E-03

  Trace(PS):                                    8.0000000000
  Electronic density on regular grids:         -7.9997986882        0.0002013118
  Core density on regular grids:                8.0007387400        0.0007387400
  Total charge density on r-space grids:        0.0009400518
  Total charge density g-space grids:           0.0009400518

     7 Pulay/Diag. 0.50E+00    0.2     0.00014662       -17.1296077025  3.36E-04

  Trace(PS):                                    8.0000000000
  Electronic density on regular grids:         -7.9997986928        0.0002013072
  Core density on regular grids:                8.0007387400        0.0007387400
  Total charge density on r-space grids:        0.0009400472
  Total charge density g-space grids:           0.0009400472

     8 Pulay/Diag. 0.50E+00    0.2     0.00011266       -17.1294448581  1.63E-04

  Trace(PS):                                    8.0000000000
  Electronic density on regular grids:         -7.9997986887        0.0002013113
  Core density on regular grids:                8.0007387400        0.0007387400
  Total charge density on r-space grids:        0.0009400513
  Total charge density g-space grids:           0.0009400513

     9 Pulay/Diag. 0.50E+00    0.2     0.00005837       -17.1294479724 -3.11E-06

  Trace(PS):                                    8.0000000000
  Electronic density on regular grids:         -7.9997986907        0.0002013093
  Core density on regular grids:                8.0007387400        0.0007387400
  Total charge density on r-space grids:        0.0009400493
  Total charge density g-space grids:           0.0009400493

    10 Pulay/Diag. 0.50E+00    0.2     0.00004147       -17.1292907484  1.57E-04

  Trace(PS):                                    8.0000000000
  Electronic density on regular grids:         -7.9997986903        0.0002013097
  Core density on regular grids:                8.0007387400        0.0007387400
  Total charge density on r-space grids:        0.0009400497
  Total charge density g-space grids:           0.0009400497

    11 Pulay/Diag. 0.50E+00    0.2     0.00001983       -17.1293509622 -6.02E-05

  Trace(PS):                                    8.0000000000
  Electronic density on regular grids:         -7.9997986916        0.0002013084
  Core density on regular grids:                8.0007387400        0.0007387400
  Total charge density on r-space grids:        0.0009400484
  Total charge density g-space grids:           0.0009400484

    12 Pulay/Diag. 0.50E+00    0.2     0.00000671       -17.1293364657  1.45E-05

  *** SCF run converged in    12 steps ***


  Electronic density on regular grids:         -7.9997986916        0.0002013084
  Core density on regular grids:                8.0007387400        0.0007387400
  Total charge density on r-space grids:        0.0009400484
  Total charge density g-space grids:           0.0009400484

  Overlap energy of the core charge distribution:               0.00000093831977
  Self energy of the core charge distribution:                -43.83289054591484
  Core Hamiltonian energy:                                     13.00660769007640
  Hartree energy:                                              17.87302969585060
  Exchange-correlation energy:                                 -4.17608424402857

  Total energy:                                               -17.12933646569663


 MULLIKEN POPULATION ANALYSIS

 #  Atom  Element  Kind  Atomic population                Net charge
       1     O        1          6.644101                 -0.644101
       2     H        2          0.680875                  0.319125
       3     H        2          0.675024                  0.324976
 # Total charge                  8.000000                  0.000000


 !-----------------------------------------------------------------------------!
                           Hirschfeld Charges

  #Atom  Element  Kind  Ref Charge     Population                     Net charge
      1       O      1       6.000          6.544                         -0.544
      2       H      2       1.000          0.714                          0.286
      3       H      2       1.000          0.742                          0.258

  Total Charge                                                             0.000
 !-----------------------------------------------------------------------------!

  Trace(PS):                                    8.0000000000
  Electronic density on regular grids:         -7.9997986914        0.0002013086
  Core density on regular grids:                8.0007387400        0.0007387400
  Total charge density on r-space grids:        0.0009400486
  Total charge density g-space grids:           0.0009400486


 ENERGY| Total FORCE_EVAL ( QS ) energy (a.u.):              -17.129325641762666


 DISTRIBUTION OF THE NEIGHBOR LISTS
              Total number of particle pairs:                                  6
              Total number of matrix elements:                               374
              Average number of particle pairs:                                6
              Maximum number of particle pairs:                                6
              Average number of matrix element:                              374
              Maximum number of matrix elements:                             374


 DISTRIBUTION OF THE OVERLAP MATRIX
              Number  of non-zero blocks:                                      6
              Percentage non-zero blocks:                                 100.00
              Average number of blocks per CPU:                                6
              Maximum number of blocks per CPU:                                6
              Average number of matrix elements per CPU:                     384
              Maximum number of matrix elements per CPU:                     384

 Number of electrons:                                                          8
 Number of occupied orbitals:                                                  4
 Number of molecular orbitals:                                                 4

 Number of orbital functions:                                                 23
 Number of independent orbital functions:                                     23

 Parameters for the always stable predictor-corrector (ASPC) method:

  ASPC order: 1

  B(1) =   2.500000
  B(2) =  -2.000000
  B(3) =   0.500000

 Extrapolation method: ASPC


 SCF WAVEFUNCTION OPTIMIZATION

  Step     Update method      Time    Convergence         Total energy    Change
  ------------------------------------------------------------------------------

  Trace(PS):                                    8.0000000000
  Electronic density on regular grids:         -7.9994744611        0.0005255389
  Core density on regular grids:                7.9999673853       -0.0000326147
  Total charge density on r-space grids:        0.0004929242
  Total charge density g-space grids:           0.0004929242

     1 Pulay/Diag. 0.50E+00    0.1     0.83895212       -16.8599506844 -1.69E+01

  Trace(PS):                                    8.0000000000
  Electronic density on regular grids:         -7.9996413419        0.0003586581
  Core density on regular grids:                7.9999673853       -0.0000326147
  Total charge density on r-space grids:        0.0003260434
  Total charge density g-space grids:           0.0003260434

     2 Pulay/Diag. 0.50E+00    0.2     0.58430035       -15.1144582924  1.75E+00

  Trace(PS):                                    8.0000000000
  Electronic density on regular grids:         -7.9997831107        0.0002168893
  Core density on regular grids:                7.9999673853       -0.0000326147
  Total charge density on r-space grids:        0.0001842746
  Total charge density g-space grids:           0.0001842746

     3 Pulay/Diag. 0.50E+00    0.2     0.14347126       -17.5487257777 -2.43E+00

  Trace(PS):                                    8.0000000000
  Electronic density on regular grids:         -7.9997719871        0.0002280129
  Core density on regular grids:                7.9999673853       -0.0000326147
  Total charge density on r-space grids:        0.0001953982
  Total charge density g-space grids:           0.0001953982

     4 Pulay/Diag. 0.50E+00    0.2     0.02040700       -17.1154017634  4.33E-01

  Trace(PS):                                    8.0000000000
  Electronic density on regular grids:         -7.9997730246        0.0002269754
  Core density on regular grids:                7.9999673853       -0.0000326147
  Total charge density on r-space grids:        0.0001943607
  Total charge density g-space grids:           0.0001943607

     5 Pulay/Diag. 0.50E+00    0.2     0.00444064       -17.1634514209 -4.80E-02

  Trace(PS):                                    8.0000000000
  Electronic density on regular grids:         -7.9997728982        0.0002271018
  Core density on regular grids:                7.9999673853       -0.0000326147
  Total charge density on r-space grids:        0.0001944871
  Total charge density g-space grids:           0.0001944871

     6 Pulay/Diag. 0.50E+00    0.2     0.00121711       -17.1566603138  6.79E-03

  Trace(PS):                                    8.0000000000
  Electronic density on regular grids:         -7.9997727671        0.0002272329
  Core density on regular grids:                7.9999673853       -0.0000326147
  Total charge density on r-space grids:        0.0001946182
  Total charge density g-space grids:           0.0001946182

     7 Pulay/Diag. 0.50E+00    0.2     0.00048987       -17.1537131607  2.95E-03

  Trace(PS):                                    8.0000000000
  Electronic density on regular grids:         -7.9997727546        0.0002272454
  Core density on regular grids:                7.9999673853       -0.0000326147
  Total charge density on r-space grids:        0.0001946307
  Total charge density g-space grids:           0.0001946307

     8 Pulay/Diag. 0.50E+00    0.2     0.00015258       -17.1532287840  4.84E-04

  Trace(PS):                                    8.0000000000
  Electronic density on regular grids:         -7.9997726985        0.0002273015
  Core density on regular grids:                7.9999673853       -0.0000326147
  Total charge density on r-space grids:        0.0001946868
  Total charge density g-space grids:           0.0001946868

     9 Pulay/Diag. 0.50E+00    0.2     0.00019945       -17.1532835728 -5.48E-05

  Trace(PS):                                    8.0000000000
  Electronic density on regular grids:         -7.9997726844        0.0002273156
  Core density on regular grids:                7.9999673853       -0.0000326147
  Total charge density on r-space grids:        0.0001947009
  Total charge density g-space grids:           0.0001947009

    10 Pulay/Diag. 0.50E+00    0.2     0.00005400       -17.1530858594  1.98E-04

  Trace(PS):                                    8.0000000000
  Electronic density on regular grids:         -7.9997726782        0.0002273218
  Core density on regular grids:                7.9999673853       -0.0000326147
  Total charge density on r-space grids:        0.0001947071
  Total charge density g-space grids:           0.0001947071

    11 Pulay/Diag. 0.50E+00    0.2     0.00003148       -17.1532425188 -1.57E-04

  Trace(PS):                                    8.0000000000
  Electronic density on regular grids:         -7.9997726730        0.0002273270
  Core density on regular grids:                7.9999673853       -0.0000326147
  Total charge density on r-space grids:        0.0001947123
  Total charge density g-space grids:           0.0001947123

    12 Pulay/Diag. 0.50E+00    0.2     0.00000959       -17.1532070091  3.55E-05

  *** SCF run converged in    12 steps ***


  Electronic density on regular grids:         -7.9997726730        0.0002273270
  Core density on regular grids:                7.9999673853       -0.0000326147
  Total charge density on r-space grids:        0.0001947123
  Total charge density g-space grids:           0.0001947123

  Overlap energy of the core charge distribution:               0.00000012624770
  Self energy of the core charge distribution:                -43.83289054591484
  Core Hamiltonian energy:                                     12.89456119866905
  Hartree energy:                                              17.93226761284651
  Exchange-correlation energy:                                 -4.14714540090327

  Total energy:                                               -17.15320700905484


 MULLIKEN POPULATION ANALYSIS

 #  Atom  Element  Kind  Atomic population                Net charge
       1     O        1          6.651488                 -0.651488
       2     H        2          0.677375                  0.322625
       3     H        2          0.671137                  0.328863
 # Total charge                  8.000000                  0.000000


 !-----------------------------------------------------------------------------!
                           Hirschfeld Charges

  #Atom  Element  Kind  Ref Charge     Population                     Net charge
      1       O      1       6.000          6.554                         -0.554
      2       H      2       1.000          0.720                          0.280
      3       H      2       1.000          0.725                          0.275

  Total Charge                                                             0.000
 !-----------------------------------------------------------------------------!

  Trace(PS):                                    8.0000000000
  Electronic density on regular grids:         -7.9997726734        0.0002273266
  Core density on regular grids:                7.9999673853       -0.0000326147
  Total charge density on r-space grids:        0.0001947119
  Total charge density g-space grids:           0.0001947119


 ENERGY| Total FORCE_EVAL ( QS ) energy (a.u.):              -17.153205360480122


 --------  Informations at step =     1 ------------
  Optimization Method        =                LBFGS
  Total Energy               =       -17.1532053605
  Real energy change         =        -0.0043815970
  Decrease in energy         =                  YES
  Used time                  =                9.263

  Convergence check :
  Max. step size             =         0.0371718634
  Conv. limit for step size  =         0.0010000000
  Convergence in step size   =                   NO
  RMS step size              =         0.0129508474
  Conv. limit for RMS step   =         0.0010000000
  Convergence in RMS step    =                   NO
  Max. gradient              =         0.0509108061
  Conv. limit for gradients  =         0.0010000000
  Conv. for gradients        =                   NO
  RMS gradient               =         0.0273343647
  Conv. limit for RMS grad.  =         0.0010000000
  Conv. for gradients        =                   NO
 ---------------------------------------------------

 --------------------------
 OPTIMIZATION STEP:      2
 --------------------------

 DISTRIBUTION OF THE NEIGHBOR LISTS
              Total number of particle pairs:                                  6
              Total number of matrix elements:                               374
              Average number of particle pairs:                                6
              Maximum number of particle pairs:                                6
              Average number of matrix element:                              374
              Maximum number of matrix elements:                             374


 DISTRIBUTION OF THE OVERLAP MATRIX
              Number  of non-zero blocks:                                      6
              Percentage non-zero blocks:                                 100.00
              Average number of blocks per CPU:                                6
              Maximum number of blocks per CPU:                                6
              Average number of matrix elements per CPU:                     384
              Maximum number of matrix elements per CPU:                     384

 Number of electrons:                                                          8
 Number of occupied orbitals:                                                  4
 Number of molecular orbitals:                                                 4

 Number of orbital functions:                                                 23
 Number of independent orbital functions:                                     23

 Parameters for the always stable predictor-corrector (ASPC) method:

  ASPC order: 2

  B(1) =   2.800000
  B(2) =  -2.800000
  B(3) =   1.200000
  B(4) =  -0.200000

 Extrapolation method: ASPC


 SCF WAVEFUNCTION OPTIMIZATION

  Step     Update method      Time    Convergence         Total energy    Change
  ------------------------------------------------------------------------------

  Trace(PS):                                    8.0000000000
  Electronic density on regular grids:         -8.0000492383       -0.0000492383
  Core density on regular grids:                7.9997269984       -0.0002730016
  Total charge density on r-space grids:       -0.0003222399
  Total charge density g-space grids:          -0.0003222399

     1 Pulay/Diag. 0.50E+00    0.1     1.00823780       -17.0546745741 -1.71E+01

  Trace(PS):                                    8.0000000000
  Electronic density on regular grids:         -7.9999056288        0.0000943712
  Core density on regular grids:                7.9997269984       -0.0002730016
  Total charge density on r-space grids:       -0.0001786304
  Total charge density g-space grids:          -0.0001786304

     2 Pulay/Diag. 0.50E+00    0.2     0.27748011       -18.0897914110 -1.04E+00

  Trace(PS):                                    8.0000000000
  Electronic density on regular grids:         -7.9997688219        0.0002311781
  Core density on regular grids:                7.9997269984       -0.0002730016
  Total charge density on r-space grids:       -0.0000418235
  Total charge density g-space grids:          -0.0000418235

     3 Pulay/Diag. 0.50E+00    0.2     0.06048882       -16.9040499687  1.19E+00

  Trace(PS):                                    8.0000000000
  Electronic density on regular grids:         -7.9997739619        0.0002260381
  Core density on regular grids:                7.9997269984       -0.0002730016
  Total charge density on r-space grids:       -0.0000469635
  Total charge density g-space grids:          -0.0000469635

     4 Pulay/Diag. 0.50E+00    0.2     0.00636781       -17.1708606157 -2.67E-01

  Trace(PS):                                    8.0000000000
  Electronic density on regular grids:         -7.9997731377        0.0002268623
  Core density on regular grids:                7.9997269984       -0.0002730016
  Total charge density on r-space grids:       -0.0000461393
  Total charge density g-space grids:          -0.0000461393

     5 Pulay/Diag. 0.50E+00    0.2     0.00155852       -17.1554622398  1.54E-02

  Trace(PS):                                    8.0000000000
  Electronic density on regular grids:         -7.9997731860        0.0002268140
  Core density on regular grids:                7.9997269984       -0.0002730016
  Total charge density on r-space grids:       -0.0000461876
  Total charge density g-space grids:          -0.0000461876

     6 Pulay/Diag. 0.50E+00    0.2     0.00023068       -17.1570071182 -1.54E-03

  Trace(PS):                                    8.0000000000
  Electronic density on regular grids:         -7.9997731898        0.0002268102
  Core density on regular grids:                7.9997269984       -0.0002730016
  Total charge density on r-space grids:       -0.0000461914
  Total charge density g-space grids:          -0.0000461914

     7 Pulay/Diag. 0.50E+00    0.2     0.00011128       -17.1564822877  5.25E-04

  Trace(PS):                                    8.0000000000
  Electronic density on regular grids:         -7.9997731786        0.0002268214
  Core density on regular grids:                7.9997269984       -0.0002730016
  Total charge density on r-space grids:       -0.0000461803
  Total charge density g-space grids:          -0.0000461803

     8 Pulay/Diag. 0.50E+00    0.2     0.00004880       -17.1563455421  1.37E-04

  Trace(PS):                                    8.0000000000
  Electronic density on regular grids:         -7.9997731722        0.0002268278
  Core density on regular grids:                7.9997269984       -0.0002730016
  Total charge density on r-space grids:       -0.0000461738
  Total charge density g-space grids:          -0.0000461738

     9 Pulay/Diag. 0.50E+00    0.2     0.00002590       -17.1562900001  5.55E-05

  Trace(PS):                                    8.0000000000
  Electronic density on regular grids:         -7.9997731718        0.0002268282
  Core density on regular grids:                7.9997269984       -0.0002730016
  Total charge density on r-space grids:       -0.0000461734
  Total charge density g-space grids:          -0.0000461734

    10 Pulay/Diag. 0.50E+00    0.2     0.00001913       -17.1562382789  5.17E-05

  Trace(PS):                                    8.0000000000
  Electronic density on regular grids:         -7.9997731700        0.0002268300
  Core density on regular grids:                7.9997269984       -0.0002730016
  Total charge density on r-space grids:       -0.0000461716
  Total charge density g-space grids:          -0.0000461716

    11 Pulay/Diag. 0.50E+00    0.2     0.00000713       -17.1562809397 -4.27E-05

  *** SCF run converged in    11 steps ***


  Electronic density on regular grids:         -7.9997731700        0.0002268300
  Core density on regular grids:                7.9997269984       -0.0002730016
  Total charge density on r-space grids:       -0.0000461716
  Total charge density g-space grids:          -0.0000461716

  Overlap energy of the core charge distribution:               0.00000016462695
  Self energy of the core charge distribution:                -43.83289054591484
  Core Hamiltonian energy:                                     12.90759951053865
  Hartree energy:                                              17.91955385290811
  Exchange-correlation energy:                                 -4.15054392184817

  Total energy:                                               -17.15628093968930


 MULLIKEN POPULATION ANALYSIS

 #  Atom  Element  Kind  Atomic population                Net charge
       1     O        1          6.652670                 -0.652670
       2     H        2          0.677520                  0.322480
       3     H        2          0.669810                  0.330190
 # Total charge                  8.000000                  0.000000


 !-----------------------------------------------------------------------------!
                           Hirschfeld Charges

  #Atom  Element  Kind  Ref Charge     Population                     Net charge
      1       O      1       6.000          6.554                         -0.554
      2       H      2       1.000          0.718                          0.282
      3       H      2       1.000          0.728                          0.272

  Total Charge                                                             0.000
 !-----------------------------------------------------------------------------!

  Trace(PS):                                    8.0000000000
  Electronic density on regular grids:         -7.9997731704        0.0002268296
  Core density on regular grids:                7.9997269984       -0.0002730016
[...]

  *** SCF run converged in     6 steps ***


  Electronic density on regular grids:         -7.9997517441        0.0002482559
  Core density on regular grids:                7.9962908066       -0.0037091934
  Total charge density on r-space grids:       -0.0034609375
  Total charge density g-space grids:          -0.0034609375

  Overlap energy of the core charge distribution:               0.00000018506685
  Self energy of the core charge distribution:                -43.83289054591484
  Core Hamiltonian energy:                                     12.85923653215223
  Hartree energy:                                              17.89997561545420
  Exchange-correlation energy:                                 -4.13608453878204

  Total energy:                                               -17.20976275202359


 MULLIKEN POPULATION ANALYSIS

 #  Atom  Element  Kind  Atomic population                Net charge
       1     O        1          6.669262                 -0.669262
       2     H        2          0.670664                  0.329336
       3     H        2          0.660074                  0.339926
 # Total charge                  8.000000                  0.000000


 !-----------------------------------------------------------------------------!
                           Hirschfeld Charges

  #Atom  Element  Kind  Ref Charge     Population                     Net charge
      1       O      1       6.000          6.562                         -0.562
      2       H      2       1.000          0.708                          0.292
      3       H      2       1.000          0.729                          0.271

  Total Charge                                                             0.000
 !-----------------------------------------------------------------------------!

  Trace(PS):                                    8.0000000000
  Electronic density on regular grids:         -7.9997517439        0.0002482561
  Core density on regular grids:                7.9962908066       -0.0037091934
  Total charge density on r-space grids:       -0.0034609372
  Total charge density g-space grids:          -0.0034609372


 ENERGY| Total FORCE_EVAL ( QS ) energy (a.u.):              -17.209774314720537


 --------  Informations at step =    11 ------------
  Optimization Method        =                LBFGS
  Total Energy               =       -17.2097743147
  Real energy change         =        -0.0000004293
  Decrease in energy         =                  YES
  Used time                  =                1.163

  Convergence check :
  Max. step size             =         0.0003653442
  Conv. limit for step size  =         0.0010000000
  Convergence in step size   =                  YES
  RMS step size              =         0.0001610528
  Conv. limit for RMS step   =         0.0010000000
  Convergence in RMS step    =                  YES
  Max. gradient              =         0.0001962916
  Conv. limit for gradients  =         0.0010000000
  Conv. in gradients         =                  YES
  RMS gradient               =         0.0000903513
  Conv. limit for RMS grad.  =         0.0010000000
  Conv. in RMS gradients     =                  YES
 ---------------------------------------------------

 *******************************************************************************
 ***                    GEOMETRY OPTIMIZATION COMPLETED                      ***
 *******************************************************************************

                    Reevaluating energy at the minimum

 DISTRIBUTION OF THE NEIGHBOR LISTS
              Total number of particle pairs:                                  6
              Total number of matrix elements:                               374
              Average number of particle pairs:                                6
              Maximum number of particle pairs:                                6
              Average number of matrix element:                              374
              Maximum number of matrix elements:                             374


 DISTRIBUTION OF THE OVERLAP MATRIX
              Number  of non-zero blocks:                                      6
              Percentage non-zero blocks:                                 100.00
              Average number of blocks per CPU:                                6
              Maximum number of blocks per CPU:                                6
              Average number of matrix elements per CPU:                     384
              Maximum number of matrix elements per CPU:                     384

 Number of electrons:                                                          8
 Number of occupied orbitals:                                                  4
 Number of molecular orbitals:                                                 4

 Number of orbital functions:                                                 23
 Number of independent orbital functions:                                     23

 Parameters for the always stable predictor-corrector (ASPC) method:

  ASPC order: 3

  B(1) =   3.000000
  B(2) =  -3.428571
  B(3) =   1.928571
  B(4) =  -0.571429
  B(5) =   0.071429

 Extrapolation method: ASPC


 SCF WAVEFUNCTION OPTIMIZATION

  Step     Update method      Time    Convergence         Total energy    Change
  ------------------------------------------------------------------------------

  Trace(PS):                                    8.0000000000
  Electronic density on regular grids:         -7.9997505391        0.0002494609
  Core density on regular grids:                7.9962908066       -0.0037091934
  Total charge density on r-space grids:       -0.0034597324
  Total charge density g-space grids:          -0.0034597324

     1 Pulay/Diag. 0.50E+00    0.1     0.00867890       -17.2097660559 -1.72E+01

  Trace(PS):                                    8.0000000000
  Electronic density on regular grids:         -7.9997511600        0.0002488400
  Core density on regular grids:                7.9962908066       -0.0037091934
  Total charge density on r-space grids:       -0.0034603534
  Total charge density g-space grids:          -0.0034603534

     2 Pulay/Diag. 0.50E+00    0.2     0.00162872       -17.2041640647  5.60E-03

  Trace(PS):                                    8.0000000000
  Electronic density on regular grids:         -7.9997517291        0.0002482709
  Core density on regular grids:                7.9962908066       -0.0037091934
  Total charge density on r-space grids:       -0.0034609225
  Total charge density g-space grids:          -0.0034609225

     3 Pulay/Diag. 0.50E+00    0.2     0.00068415       -17.2108935361 -6.73E-03

  Trace(PS):                                    8.0000000000
  Electronic density on regular grids:         -7.9997517412        0.0002482588
  Core density on regular grids:                7.9962908066       -0.0037091934
  Total charge density on r-space grids:       -0.0034609345
  Total charge density g-space grids:          -0.0034609345

     4 Pulay/Diag. 0.50E+00    0.2     0.00018007       -17.2092481118  1.65E-03

  Trace(PS):                                    8.0000000000
  Electronic density on regular grids:         -7.9997517454        0.0002482546
  Core density on regular grids:                7.9962908066       -0.0037091934
  Total charge density on r-space grids:       -0.0034609388
  Total charge density g-space grids:          -0.0034609388

     5 Pulay/Diag. 0.50E+00    0.2     0.00002131       -17.2098319056 -5.84E-04

  Trace(PS):                                    8.0000000000
  Electronic density on regular grids:         -7.9997517445        0.0002482555
  Core density on regular grids:                7.9962908066       -0.0037091934
  Total charge density on r-space grids:       -0.0034609378
  Total charge density g-space grids:          -0.0034609378

     6 Pulay/Diag. 0.50E+00    0.2     0.00000710       -17.2097882159  4.37E-05

  *** SCF run converged in     6 steps ***


  Electronic density on regular grids:         -7.9997517445        0.0002482555
  Core density on regular grids:                7.9962908066       -0.0037091934
  Total charge density on r-space grids:       -0.0034609378
  Total charge density g-space grids:          -0.0034609378

  Overlap energy of the core charge distribution:               0.00000018506685
  Self energy of the core charge distribution:                -43.83289054591484
  Core Hamiltonian energy:                                     12.85921758876083
  Hartree energy:                                              17.89996553190577
  Exchange-correlation energy:                                 -4.13608097567675

  Total energy:                                               -17.20978821585813


 MULLIKEN POPULATION ANALYSIS

 #  Atom  Element  Kind  Atomic population                Net charge
       1     O        1          6.669266                 -0.669266
       2     H        2          0.670662                  0.329338
       3     H        2          0.660072                  0.339928
 # Total charge                  8.000000                  0.000000


 !-----------------------------------------------------------------------------!
                           Hirschfeld Charges

  #Atom  Element  Kind  Ref Charge     Population                     Net charge
      1       O      1       6.000          6.562                         -0.562
      2       H      2       1.000          0.708                          0.292
      3       H      2       1.000          0.729                          0.271

  Total Charge                                                             0.000
 !-----------------------------------------------------------------------------!

 ENERGY| Total FORCE_EVAL ( QS ) energy (a.u.):              -17.209788215858126


 -------------------------------------------------------------------------------
 -                                                                             -
 -                                DBCSR STATISTICS                             -
 -                                                                             -
 -------------------------------------------------------------------------------
 COUNTER                                      CPU                  ACC      ACC%
 number of processed stacks                  2044                    0       0.0
 matmuls inhomo. stacks                         0                    0       0.0
 matmuls total                               3264                    0       0.0
 flops   5 x    4 x    5                    52800                    0       0.0
 flops  13 x    4 x    5                    68640                    0       0.0
 flops   5 x    4 x   13                    68640                    0       0.0
 flops  13 x    4 x   13                    89232                    0       0.0
 flops  13 x    5 x    4                   231400                    0       0.0
 flops   5 x   13 x    4                   231400                    0       0.0
 flops   5 x    5 x    4                   267000                    0       0.0
 flops  13 x   13 x    4                   601640                    0       0.0
 flops total                              1610752                    0       0.0
 marketing flops                          2162552
 -------------------------------------------------------------------------------

 -------------------------------------------------------------------------------
 ----                             MULTIGRID INFO                            ----
 -------------------------------------------------------------------------------
 count for grid        1:           4517          cutoff [a.u.]           50.00
 count for grid        2:           1192          cutoff [a.u.]           16.67
 count for grid        3:            124          cutoff [a.u.]            5.56
 count for grid        4:              0          cutoff [a.u.]            1.85
 total gridlevel count  :           5833

 -------------------------------------------------------------------------------
 -                                                                             -
 -                         MESSAGE PASSING PERFORMANCE                         -
 -                                                                             -
 -------------------------------------------------------------------------------

 ROUTINE             CALLS  TOT TIME [s]  AVE VOLUME [Bytes]  PERFORMANCE [MB/s]
 MP_Group                5         0.000
 MP_Bcast              540         0.001                 10.                9.57
 MP_Allreduce         5463         0.008                 13.                9.10
 MP_Sync                 4         0.000
 MP_Alltoall          8183         0.006                902.             1243.22
 MP_Wait             12264         0.003
 MP_ISend             4088         0.005               1030.              839.20
 MP_IRecv             4088         0.002               1030.             1873.38
 MP_Memory           12000         0.005
 -------------------------------------------------------------------------------


 -------------------------------------------------------------------------------
 -                                                                             -
 -                           R E F E R E N C E S                               -
 -                                                                             -
 -------------------------------------------------------------------------------
 
 CP2K version 2.6.2, the CP2K developers group (2015).
 CP2K is freely available from http://www.cp2k.org/ .

 Borstnik, U; VandeVondele, J; Weber, V; Hutter, J. 
 PARALLEL COMPUTING, 40 (5-6), 47-58 (2014). 
 Sparse matrix multiplication: The distributed block-compressed sparse
 row library.
 http://dx.doi.org/10.1016/j.parco.2014.03.012


 Hutter, J; Iannuzzi, M; Schiffmann, F; VandeVondele, J. 
 WILEY INTERDISCIPLINARY REVIEWS-COMPUTATIONAL MOLECULAR SCIENCE, 4 (1), 15-25 (2014). 
 CP2K: atomistic simulations of condensed matter systems.
 http://dx.doi.org/10.1002/wcms.1159


 Krack, M. 
 THEORETICAL CHEMISTRY ACCOUNTS, 114 (1-3), 145-152 (2005). 
 Pseudopotentials for H to Kr optimized for gradient-corrected
 exchange-correlation functionals.
 http://dx.doi.org/10.1007/s00214-005-0655-y


 VandeVondele, J; Krack, M; Mohamed, F; Parrinello, M; Chassaing, T;
 Hutter, J. COMPUTER PHYSICS COMMUNICATIONS, 167 (2), 103-128 (2005). 
 QUICKSTEP: Fast and accurate density functional calculations using a
 mixed Gaussian and plane waves approach.
 http://dx.doi.org/10.1016/j.cpc.2004.12.014


 Frigo, M; Johnson, SG. 
 PROCEEDINGS OF THE IEEE, 93 (2), 216-231 (2005). 
 The design and implementation of FFTW3.
 http://dx.doi.org/10.1109/JPROC.2004.840301


 Kolafa, J. 
 JOURNAL OF COMPUTATIONAL CHEMISTRY, 25 (3), 335-342 (2004). 
 Time-reversible always stable predictor-corrector method for molecular dynamics of polarizable molecules.
 http://dx.doi.org/10.1002/jcc.10385


 Hartwigsen, C; Goedecker, S; Hutter, J. 
 PHYSICAL REVIEW B, 58 (7), 3641-3662 (1998). 
 Relativistic separable dual-space Gaussian pseudopotentials from H to Rn.
 http://dx.doi.org/10.1103/PhysRevB.58.3641


 Lippert, G; Hutter, J; Parrinello, M. 
 MOLECULAR PHYSICS, 92 (3), 477-487 (1997). 
 A hybrid Gaussian and plane wave density functional scheme.
 http://dx.doi.org/10.1080/002689797170220


 Goedecker, S; Teter, M; Hutter, J. 
 PHYSICAL REVIEW B, 54 (3), 1703-1710 (1996). 
 Separable dual-space Gaussian pseudopotentials.
 http://dx.doi.org/10.1103/PhysRevB.54.1703


 BYRD, RH; LU, PH; NOCEDAL, J; ZHU, CY. 
 SIAM JOURNAL ON SCIENTIFIC COMPUTING, 16 (5), 1190-1208 (1995). 
 A LIMITED MEMORY ALGORITHM FOR BOUND CONSTRAINED OPTIMIZATION.
 http://dx.doi.org/10.1137/0916069


 -------------------------------------------------------------------------------
 -                                                                             -
 -                                T I M I N G                                  -
 -                                                                             -
 -------------------------------------------------------------------------------
 SUBROUTINE                       CALLS  ASD         SELF TIME        TOTAL TIME
                                MAXIMUM       AVERAGE  MAXIMUM  AVERAGE  MAXIMUM
 CP2K                                 1  1.0    0.003    0.003   73.432   73.432
 cp_geo_opt                           1  2.0    0.012    0.012   73.218   73.218
 geoopt_lbfgs                         1  3.0    0.000    0.000   73.206   73.206
 cp_eval_at                          20  5.0    0.001    0.001   73.186   73.186
 cp_opt_gopt_step                    11  4.0    0.001    0.001   72.107   72.107
 qs_forces                           19  6.0    0.001    0.001   72.093   72.093
 qs_energies_scf                     20  6.9    0.001    0.001   71.669   71.669
 scf_env_do_scf                      20  7.9    0.001    0.001   68.809   68.809
 scf_env_do_scf_inner_loop          407  9.0    0.035    0.035   68.807   68.807
 fft_wrap_pw1pw2                   4672 13.8    0.046    0.046   43.270   43.270
 fft_wrap_pw1pw2_50                2113 14.2    2.194    2.194   39.984   39.984
 rebuild_ks_matrix                  426 10.8    0.001    0.001   33.678   33.678
 qs_ks_build_kohn_sham_matrix       426 11.8    0.057    0.057   33.677   33.677
 qs_ks_update_qs_env                407 10.0    0.005    0.005   32.193   32.193
 fft3d_s                           4673 15.8   26.982   26.982   27.001   27.001
 qs_rho_update_rho                  427 10.0    0.002    0.002   21.336   21.336
 calculate_rho_elec                 427 11.0    1.654    1.654   21.334   21.334
 density_rs2pw                      427 12.0    0.009    0.009   19.476   19.476
 gspace_mixing                      387 10.0    0.864    0.864   15.760   15.760
 sum_up_and_integrate               426 12.8    0.288    0.288   12.814   12.814
 integrate_v_rspace                 426 13.8    1.204    1.204   12.525   12.525
 potential_pw2rs                    426 14.8    0.046    0.046   11.283   11.283
 qs_vxc_create                      426 12.8    0.006    0.006    8.358    8.358
 xc_vxc_pw_create                   426 13.8    0.933    0.933    8.352    8.352
 pulay_mixing                       387 11.0    7.951    7.951    7.963    7.963
 xc_rho_set_and_dset_create         426 14.8    0.009    0.009    7.417    7.417
 xc_functional_eval                 426 15.8    7.102    7.102    7.102    7.102
 pw_scatter_s                      2518 16.1    7.077    7.077    7.077    7.077
 pw_gather_s                       2154 15.6    6.760    6.760    6.760    6.760
 pw_poisson_solve                   426 12.8    2.400    2.400    3.538    3.538
 fft_wrap_pw1pw2_20                 853 15.4    0.156    0.156    2.931    2.931
 pw_copy                           3408 15.0    2.457    2.457    2.457    2.457
 init_scf_run                        20  7.9    0.001    0.001    2.208    2.208
 scf_env_initial_rho_setup           20  8.9    0.000    0.000    2.204    2.204
 qs_ks_update_qs_env_forces          19  7.0    0.000    0.000    1.499    1.499
 -------------------------------------------------------------------------------

  **** **** ******  **  PROGRAM ENDED AT                 2016-05-31 13:24:40.471
 ***** ** ***  *** **   PROGRAM RAN ON                       lauri-Lenovo-Z50-70
 **    ****   ******    PROGRAM RAN BY                                     lauri
 ***** **    ** ** **   PROGRAM PROCESS ID                                  8931
  **** **  *******  **  PROGRAM STOPPED IN /home/lauri/Dropbox/nomad-dev/nomad-l
                                           ab-base/parsers/cp2k/test/unittests/c
                                           p2k_2.6.2/geo_opt/lbfgs
