#     Step Nr.          Time[fs]        Kin.[a.u.]          Temp[K]            Pot.[a.u.]        Cons Qty[a.u.]        UsedTime[s]
         1            0.000000         0.000000000         0.000000000     -3789.638744517         0.000000000      3082.518638168
         2            0.000000         0.000000000         0.000000000     -3789.636205555         0.000000000       533.764807341
         3            0.000000         0.000000000         0.000000000     -3789.610244135         0.000000000       543.401856663
         4            0.000000         0.000000000         0.000000000     -3789.642356522         0.000000000       639.457966478
         5            0.000000         0.000000000         0.000000000     -3789.614992642         0.000000000       633.585784375
         6            0.000000         0.000000000         0.000000000     -3789.645628278         0.000000000       585.072274469
         7            0.000000         0.000000000         0.000000000     -3789.614364173         0.000000000      1017.990192804
         8            0.000000         0.000000000         0.000000000     -3789.633960677         0.000000000       587.024296072
         9            0.000000         0.000000000         0.000000000     -3789.638946039         0.000000000       858.422229588
        10            0.000000         0.000000000         0.000000000     -3789.618385076         0.000000000      1047.445212387
        11            0.000000         0.000000000         0.000000000     -3789.606680812         0.000000000       633.888278309
        12            0.000000         0.000000000         0.000000000     -3789.620278434         0.000000000       592.237755290
        13            0.000000         0.000000000         0.000000000     -3789.618345479         0.000000000       706.315032759
        14            0.000000         0.000000000         0.000000000     -3789.612148606         0.000000000       573.803990863
        15            0.000000         0.000000000         0.000000000     -3789.659504631         0.000000000       573.669880122
        16            0.000000         0.000000000         0.000000000     -3789.618694348         0.000000000       583.414575080
        17            0.000000         0.000000000         0.000000000     -3789.628190334         0.000000000       614.283056750
        18            0.000000         0.000000000         0.000000000     -3789.649638600         0.000000000       632.392653061
        19            0.000000         0.000000000         0.000000000     -3789.660986863         0.000000000       582.545217361
        20            0.000000         0.000000000         0.000000000     -3789.640058338         0.000000000       670.398864576
        21            0.000000         0.000000000         0.000000000     -3789.634736456         0.000000000       669.468328044
        22            0.000000         0.000000000         0.000000000     -3789.626906342         0.000000000      1003.809151647
        23            0.000000         0.000000000         0.000000000     -3789.659048617         0.000000000       674.866199678
        24            0.000000         0.000000000         0.000000000     -3789.643373156         0.000000000       921.693483908
        25            0.000000         0.000000000         0.000000000     -3789.611720343         0.000000000       639.192873456
        26            0.000000         0.000000000         0.000000000     -3789.607846789         0.000000000       627.271686011
        27            0.000000         0.000000000         0.000000000     -3789.644606602         0.000000000       540.510803370
        28            0.000000         0.000000000         0.000000000     -3789.639038155         0.000000000       638.983018884
        29            0.000000         0.000000000         0.000000000     -3789.664983295         0.000000000       728.120058370
        30            0.000000         0.000000000         0.000000000     -3789.626486079         0.000000000       647.787350518
        31            0.000000         0.000000000         0.000000000     -3789.632938158         0.000000000       698.538718702
        32            0.000000         0.000000000         0.000000000     -3789.634038247         0.000000000       562.961284515
        33            0.000000         0.000000000         0.000000000     -3789.628564891         0.000000000       916.031293907
        34            0.000000         0.000000000         0.000000000     -3789.624165601         0.000000000       609.387294281
        35            0.000000         0.000000000         0.000000000     -3789.629944913         0.000000000       608.356312287
        36            0.000000         0.000000000         0.000000000     -3789.629623891         0.000000000       620.021948230
        37            0.000000         0.000000000         0.000000000     -3789.615107329         0.000000000       543.360011464
        38            0.000000         0.000000000         0.000000000     -3789.631211954         0.000000000       657.618437650
        39            0.000000         0.000000000         0.000000000     -3789.640801262         0.000000000       581.813518114
        40            0.000000         0.000000000         0.000000000     -3789.633690748         0.000000000       724.830719902
        41            0.000000         0.000000000         0.000000000     -3789.651967077         0.000000000       597.956208507
        42            0.000000         0.000000000         0.000000000     -3789.618362775         0.000000000       557.174805768
        43            0.000000         0.000000000         0.000000000     -3789.643847698         0.000000000       560.847051583
        44            0.000000         0.000000000         0.000000000     -3789.648460634         0.000000000       655.348372796
        45            0.000000         0.000000000         0.000000000     -3789.646121218         0.000000000       590.015829695
        46            0.000000         0.000000000         0.000000000     -3789.647342375         0.000000000       711.178898166
        47            0.000000         0.000000000         0.000000000     -3789.631432935         0.000000000       644.681004658
        48            0.000000         0.000000000         0.000000000     -3789.618772597         0.000000000       637.987859998
        49            0.000000         0.000000000         0.000000000     -3789.641070105         0.000000000       655.460067883
        50            0.000000         0.000000000         0.000000000     -3789.578783719         0.000000000       663.965160207
        51            0.000000         0.000000000         0.000000000     -3789.616665391         0.000000000       538.827975963
        52            0.000000         0.000000000         0.000000000     -3789.626730182         0.000000000       651.216955738
        53            0.000000         0.000000000         0.000000000     -3789.655904659         0.000000000       531.523839292
        54            0.000000         0.000000000         0.000000000     -3789.626687458         0.000000000       517.511095217
        55            0.000000         0.000000000         0.000000000     -3789.633360227         0.000000000       607.641132699
