     133
 i =        1, time =        0.000, E =     -3789.6387445172
  S         4.2607624491        6.0810743825        4.0572262050
  S         4.2725165222        6.0795587013        7.0767385012
 Mo         4.3429960913        7.8884063139        5.5630413714
  S         5.8042371688        8.7577778868        3.9682560125
  S         5.8062220850        8.7534595115        7.1588876632
 Mo         5.7221979020       10.5645515114        5.5652993723
  S         7.2671336077       11.3692780363        3.9371072957
  S         7.2698378931       11.3665479677        7.1917690895
 Mo         7.0905351409       13.0508657228        5.5657668176
  S         8.7321579381       14.1163713998        4.0571403654
  S         8.7331797337       14.1156257536        7.0732730096
 Mo         8.8186899100       16.0708605947        5.5652840180
  S        10.3651166775       16.7908479437        3.9488619959
  S        10.3639547207       16.7915048158        7.1820446597
 Mo        10.3136756814       18.5939054548        5.5647790340
  S        11.8980909566       19.3990020638        3.9572167853
  S        11.8947275855       19.4009653755        7.1742693132
 Mo        11.7946914879       21.1084426765        5.5643505062
  S        13.4277784612       21.9937378091        3.9980293843
  S        13.4231202213       21.9966308734        7.1334659353
 Mo        13.4849218421       23.7463902071        5.5641141076
  S        15.0003871101       24.6635536392        4.0411629044
  S        14.9953338769       24.6682308978        7.0882578736
 Mo         5.9286943483        5.1386769253        5.5628161925
  S         7.3335447460        5.9897890703        3.8908218322
  S         7.3409098857        5.9876735396        7.2281004549
 Mo         7.3473378010        7.7592044025        5.5609125258
  S         8.9023292616        8.6420363855        3.9793112092
  S         8.9049620909        8.6388405674        7.1410812650
 Mo         8.8450318417       10.4509249053        5.5623087360
  S        10.4005661626       11.3606784501        3.9863422299
  S        10.4013887754       11.3577651567        7.1389583556
 Mo        10.3804493775       13.1617392639        5.5643476739
  S        11.9440668608       14.0498895225        3.9869968230
  S        11.9431602104       14.0480560141        7.1434953170
 Mo        11.9479435975       15.8534802021        5.5662122247
  S        13.5357280902       16.7176830184        3.9930064624
  S        13.5331346692       16.7170119229        7.1424072737
 Mo        13.5164810390       18.5156206886        5.5679435739
  S        15.1048929721       19.3824548280        3.9859255959
  S        15.1007029203       19.3834832614        7.1538018179
 Mo        15.0849856147       21.1677274330        5.5689569374
  S        16.6178396641       22.0589836750        3.9031260387
  S        16.6125198376       22.0621640446        7.2381629045
 Mo        16.6428047764       23.7166229360        5.5688071966
 Mo         8.6933476322        4.9716790411        5.5560614572
  S        10.4174111492        5.8178783568        4.0361425133
  S        10.4201809297        5.8139030593        7.0738806570
 Mo        10.4318830089        7.7097703678        5.5578070868
  S        11.9843004513        8.6100927080        3.9813748581
  S        11.9844318331        8.6057835037        7.1363299878
 Mo        11.9684362705       10.4282125563        5.5614100291
  S        13.5383825692       11.3266885758        3.9880316516
  S        13.5370818410       11.3232071801        7.1381131735
 Mo        13.5272987070       13.1412379743        5.5651234788
  S        15.1113736914       14.0284330382        3.9887637409
  S        15.1091608899       14.0255386171        7.1453442286
 Mo        15.1160325994       15.8309774620        5.5687644008
  S        16.6948887716       16.7364199586        3.9928429070
  S        16.6912714619       16.7344135449        7.1495632599
 Mo        16.6771120177       18.5290736856        5.5722146593
  S        18.3152178081       19.4851411136        4.0562719842
  S        18.3103285380       19.4854533684        7.0935811670
 Mo        18.1780346441       21.3984143014        5.5738248090
 Mo        12.1373725043        4.9099557933        5.5523459659
  S        13.5336190845        5.8834832088        3.9081339872
  S        13.5319568832        5.8773602190        7.2003837577
 Mo        13.5408274419        7.6885201211        5.5576462512
  S        15.1083774599        8.5897108066        3.9841199022
  S        15.1052246604        8.5857551619        7.1364124335
 Mo        15.1051254841       10.4088378072        5.5627507154
  S        16.6749471025       11.3214318486        3.9908140194
  S        16.6730370357       11.3180906958        7.1392691968
 Mo        16.6851005718       13.1332741703        5.5673149612
  S        18.2660783362       14.0444554499        3.9937928575
  S        18.2643296971       14.0397808092        7.1456822330
 Mo        18.2645891497       15.8495455720        5.5723220236
  S        19.8274575208       16.7610026875        3.9285000229
  S        19.8232212423       16.7563427217        7.2226755192
 Mo        19.9628889034       18.4498197583        5.5775528610
 Mo        14.9125245993        4.8950832963        5.5528235993
  S        16.6627310943        5.7771125719        4.0459000921
  S        16.6535576924        5.7755860841        7.0697252056
 Mo        16.6606943850        7.6795143608        5.5606260410
  S        18.2083210465        8.5951137817        3.9838805299
  S        18.2034587375        8.5962539948        7.1453584877
 Mo        18.2415372614       10.4160323983        5.5650335795
  S        19.8001774298       11.3570805558        3.9847571618
  S        19.8040051382       11.3533424594        7.1458873101
 Mo        19.8277140174       13.1517990997        5.5693546068
  S        21.4744563855       14.1084353814        4.0609617342
  S        21.4782100433       14.0995980025        7.0828513123
 Mo        21.3681085447       16.0558194368        5.5768950794
 Mo        18.3857022449        4.8835213689        5.5652171864
  S        19.7893288233        5.8626232170        3.9498200214
  S        19.7580986182        5.8796583241        7.2004563915
 Mo        19.7641209044        7.7008180370        5.5683637277
  S        21.2854771670        8.6441254455        3.9872683700
  S        21.2968000253        8.6636552790        7.1423958288
 Mo        21.3556454908       10.4528639971        5.5612648574
  S        22.9305200119       11.3664218405        3.9290395853
  S        22.9615320087       11.3475881915        7.1792349426
 Mo        23.1130159441       13.0509406624        5.5640372345
 Mo        21.2760752520        4.9526115812        5.5958196817
  S        22.8346429111        5.9033994151        3.9723095088
  S        22.7193152774        5.9920987157        7.2263973106
 Mo        22.8333553996        7.7627589317        5.5649037331
  S        24.3115135037        8.7442502762        3.9042283519
  S        24.4460823223        8.6885500296        7.1565556277
 Mo        24.4914727276       10.5151856791        5.5333275422
 Mo        24.2136521686        5.1263284890        5.6896727146
  S        25.9366715879        6.0236381573        4.0896599443
  S        25.8854748328        5.9428123783        7.0432993290
 Mo        25.8077502222        7.8800351969        5.4398954913
  S         6.9662929052        3.1511741702        5.5609015089
  S        10.3154723336        3.2521338845        5.5524934960
  S        13.5176307060        3.0153367547        5.5493817960
  S        16.7001214625        3.2093516288        5.5526298834
  S        19.9058659413        3.0573544143        5.6257372774
  S        23.1557882798        3.1561874245        5.7406543883
  S         3.1988621480        9.8268883019        5.5675146397
  S         4.7640747979       12.7231964193        5.5676243339
  S         6.5112814312       15.4046897424        5.5660976808
  S         7.9491814130       18.2366129577        5.5641923730
  S         9.5086754239       20.9118155753        5.5616776820
  S        11.2375045727       23.7416266117        5.5598992179
  S        26.9846544758        9.7830408989        5.3904416214
  S        25.4516877457       12.6510774276        5.5015746019
  S        23.7167019315       15.3562680951        5.5771117757
  S        22.2894429644       18.2149559051        5.5799557732
  S        20.4720256447       20.8685874788        5.5783078421
  S        18.8776207996       23.8141936040        5.5715374582
  H        15.9252000000       12.4922000000        3.1811700000
     133
 i =        2, time =        0.000, E =     -3789.6362055548
  S         4.2607624491        6.0810743825        4.0572262050
  S         4.2725165222        6.0795587013        7.0767385012
 Mo         4.3429960913        7.8884063139        5.5630413714
  S         5.8042371688        8.7577778868        3.9682560125
  S         5.8062220850        8.7534595115        7.1588876632
 Mo         5.7221979020       10.5645515114        5.5652993723
  S         7.2671336077       11.3692780363        3.9371072957
  S         7.2698378931       11.3665479677        7.1917690895
 Mo         7.0905351409       13.0508657228        5.5657668176
  S         8.7321579381       14.1163713998        4.0571403654
  S         8.7331797337       14.1156257536        7.0732730096
 Mo         8.8186899100       16.0708605947        5.5652840180
  S        10.3651166775       16.7908479437        3.9488619959
  S        10.3639547207       16.7915048158        7.1820446597
 Mo        10.3136756814       18.5939054548        5.5647790340
  S        11.8980909566       19.3990020638        3.9572167853
  S        11.8947275855       19.4009653755        7.1742693132
 Mo        11.7946914879       21.1084426765        5.5643505062
  S        13.4277784612       21.9937378091        3.9980293843
  S        13.4231202213       21.9966308734        7.1334659353
 Mo        13.4849218421       23.7463902071        5.5641141076
  S        15.0003871101       24.6635536392        4.0411629044
  S        14.9953338769       24.6682308978        7.0882578736
 Mo         5.9286943483        5.1386769253        5.5628161925
  S         7.3335447460        5.9897890703        3.8908218322
  S         7.3409098857        5.9876735396        7.2281004549
 Mo         7.3473378010        7.7592044025        5.5609125258
  S         8.9023292616        8.6420363855        3.9793112092
  S         8.9049620909        8.6388405674        7.1410812650
 Mo         8.8450318417       10.4509249053        5.5623087360
  S        10.4005661626       11.3606784501        3.9863422299
  S        10.4013887754       11.3577651567        7.1389583556
 Mo        10.3804493775       13.1617392639        5.5643476739
  S        11.9440668608       14.0498895225        3.9869968230
  S        11.9431602104       14.0480560141        7.1434953170
 Mo        11.9479435975       15.8534802021        5.5662122247
  S        13.5357280902       16.7176830184        3.9930064624
  S        13.5331346692       16.7170119229        7.1424072737
 Mo        13.5164810390       18.5156206886        5.5679435739
  S        15.1048929721       19.3824548280        3.9859255959
  S        15.1007029203       19.3834832614        7.1538018179
 Mo        15.0849856147       21.1677274330        5.5689569374
  S        16.6178396641       22.0589836750        3.9031260387
  S        16.6125198376       22.0621640446        7.2381629045
 Mo        16.6428047764       23.7166229360        5.5688071966
 Mo         8.6933476322        4.9716790411        5.5560614572
  S        10.4174111492        5.8178783568        4.0361425133
  S        10.4201809297        5.8139030593        7.0738806570
 Mo        10.4318830089        7.7097703678        5.5578070868
  S        11.9843004513        8.6100927080        3.9813748581
  S        11.9844318331        8.6057835037        7.1363299878
 Mo        11.9684362705       10.4282125563        5.5614100291
  S        13.5383825692       11.3266885758        3.9880316516
  S        13.5370818410       11.3232071801        7.1381131735
 Mo        13.5272987070       13.1412379743        5.5651234788
  S        15.1113736914       14.0284330382        3.9887637409
  S        15.1091608899       14.0255386171        7.1453442286
 Mo        15.1160325994       15.8309774620        5.5687644008
  S        16.6948887716       16.7364199586        3.9928429070
  S        16.6912714619       16.7344135449        7.1495632599
 Mo        16.6771120177       18.5290736856        5.5722146593
  S        18.3152178081       19.4851411136        4.0562719842
  S        18.3103285380       19.4854533684        7.0935811670
 Mo        18.1780346441       21.3984143014        5.5738248090
 Mo        12.1373725043        4.9099557933        5.5523459659
  S        13.5336190845        5.8834832088        3.9081339872
  S        13.5319568832        5.8773602190        7.2003837577
 Mo        13.5408274419        7.6885201211        5.5576462512
  S        15.1083774599        8.5897108066        3.9841199022
  S        15.1052246604        8.5857551619        7.1364124335
 Mo        15.1051254841       10.4088378072        5.5627507154
  S        16.6749471025       11.3214318486        3.9908140194
  S        16.6730370357       11.3180906958        7.1392691968
 Mo        16.6851005718       13.1332741703        5.5673149612
  S        18.2660783362       14.0444554499        3.9937928575
  S        18.2643296971       14.0397808092        7.1456822330
 Mo        18.2645891497       15.8495455720        5.5723220236
  S        19.8274575208       16.7610026875        3.9285000229
  S        19.8232212423       16.7563427217        7.2226755192
 Mo        19.9628889034       18.4498197583        5.5775528610
 Mo        14.9125245993        4.8950832963        5.5528235993
  S        16.6627310943        5.7771125719        4.0459000921
  S        16.6535576924        5.7755860841        7.0697252056
 Mo        16.6606943850        7.6795143608        5.5606260410
  S        18.2083210465        8.5951137817        3.9838805299
  S        18.2034587375        8.5962539948        7.1453584877
 Mo        18.2415372614       10.4160323983        5.5650335795
  S        19.8001774298       11.3570805558        3.9847571618
  S        19.8040051382       11.3533424594        7.1458873101
 Mo        19.8277140174       13.1517990997        5.5693546068
  S        21.4744563855       14.1084353814        4.0609617342
  S        21.4782100433       14.0995980025        7.0828513123
 Mo        21.3681085447       16.0558194368        5.5768950794
 Mo        18.3857022449        4.8835213689        5.5652171864
  S        19.7893288233        5.8626232170        3.9498200214
  S        19.7580986182        5.8796583241        7.2004563915
 Mo        19.7641209044        7.7008180370        5.5683637277
  S        21.2854771670        8.6441254455        3.9872683700
  S        21.2968000253        8.6636552790        7.1423958288
 Mo        21.3556454908       10.4528639971        5.5612648574
  S        22.9305200119       11.3664218405        3.9290395853
  S        22.9615320087       11.3475881915        7.1792349426
 Mo        23.1130159441       13.0509406624        5.5640372345
 Mo        21.2760752520        4.9526115812        5.5958196817
  S        22.8346429111        5.9033994151        3.9723095088
  S        22.7193152774        5.9920987157        7.2263973106
 Mo        22.8333553996        7.7627589317        5.5649037331
  S        24.3115135037        8.7442502762        3.9042283519
  S        24.4460823223        8.6885500296        7.1565556277
 Mo        24.4914727276       10.5151856791        5.5333275422
 Mo        24.2136521686        5.1263284890        5.6896727146
  S        25.9366715879        6.0236381573        4.0896599443
  S        25.8854748328        5.9428123783        7.0432993290
 Mo        25.8077502222        7.8800351969        5.4398954913
  S         6.9662929052        3.1511741702        5.5609015089
  S        10.3154723336        3.2521338845        5.5524934960
  S        13.5176307060        3.0153367547        5.5493817960
  S        16.7001214625        3.2093516288        5.5526298834
  S        19.9058659413        3.0573544143        5.6257372774
  S        23.1557882798        3.1561874245        5.7406543883
  S         3.1988621480        9.8268883019        5.5675146397
  S         4.7640747979       12.7231964193        5.5676243339
  S         6.5112814312       15.4046897424        5.5660976808
  S         7.9491814130       18.2366129577        5.5641923730
  S         9.5086754239       20.9118155753        5.5616776820
  S        11.2375045727       23.7416266117        5.5598992179
  S        26.9846544758        9.7830408989        5.3904416214
  S        25.4516877457       12.6510774276        5.5015746019
  S        23.7167019315       15.3562680951        5.5771117757
  S        22.2894429644       18.2149559051        5.5799557732
  S        20.4720256447       20.8685874788        5.5783078421
  S        18.8776207996       23.8141936040        5.5715374582
  H        15.2527000000       11.1920000000        3.1496100000
     133
 i =        3, time =        0.000, E =     -3789.6102441350
  S         4.2607624491        6.0810743825        4.0572262050
  S         4.2725165222        6.0795587013        7.0767385012
 Mo         4.3429960913        7.8884063139        5.5630413714
  S         5.8042371688        8.7577778868        3.9682560125
  S         5.8062220850        8.7534595115        7.1588876632
 Mo         5.7221979020       10.5645515114        5.5652993723
  S         7.2671336077       11.3692780363        3.9371072957
  S         7.2698378931       11.3665479677        7.1917690895
 Mo         7.0905351409       13.0508657228        5.5657668176
  S         8.7321579381       14.1163713998        4.0571403654
  S         8.7331797337       14.1156257536        7.0732730096
 Mo         8.8186899100       16.0708605947        5.5652840180
  S        10.3651166775       16.7908479437        3.9488619959
  S        10.3639547207       16.7915048158        7.1820446597
 Mo        10.3136756814       18.5939054548        5.5647790340
  S        11.8980909566       19.3990020638        3.9572167853
  S        11.8947275855       19.4009653755        7.1742693132
 Mo        11.7946914879       21.1084426765        5.5643505062
  S        13.4277784612       21.9937378091        3.9980293843
  S        13.4231202213       21.9966308734        7.1334659353
 Mo        13.4849218421       23.7463902071        5.5641141076
  S        15.0003871101       24.6635536392        4.0411629044
  S        14.9953338769       24.6682308978        7.0882578736
 Mo         5.9286943483        5.1386769253        5.5628161925
  S         7.3335447460        5.9897890703        3.8908218322
  S         7.3409098857        5.9876735396        7.2281004549
 Mo         7.3473378010        7.7592044025        5.5609125258
  S         8.9023292616        8.6420363855        3.9793112092
  S         8.9049620909        8.6388405674        7.1410812650
 Mo         8.8450318417       10.4509249053        5.5623087360
  S        10.4005661626       11.3606784501        3.9863422299
  S        10.4013887754       11.3577651567        7.1389583556
 Mo        10.3804493775       13.1617392639        5.5643476739
  S        11.9440668608       14.0498895225        3.9869968230
  S        11.9431602104       14.0480560141        7.1434953170
 Mo        11.9479435975       15.8534802021        5.5662122247
  S        13.5357280902       16.7176830184        3.9930064624
  S        13.5331346692       16.7170119229        7.1424072737
 Mo        13.5164810390       18.5156206886        5.5679435739
  S        15.1048929721       19.3824548280        3.9859255959
  S        15.1007029203       19.3834832614        7.1538018179
 Mo        15.0849856147       21.1677274330        5.5689569374
  S        16.6178396641       22.0589836750        3.9031260387
  S        16.6125198376       22.0621640446        7.2381629045
 Mo        16.6428047764       23.7166229360        5.5688071966
 Mo         8.6933476322        4.9716790411        5.5560614572
  S        10.4174111492        5.8178783568        4.0361425133
  S        10.4201809297        5.8139030593        7.0738806570
 Mo        10.4318830089        7.7097703678        5.5578070868
  S        11.9843004513        8.6100927080        3.9813748581
  S        11.9844318331        8.6057835037        7.1363299878
 Mo        11.9684362705       10.4282125563        5.5614100291
  S        13.5383825692       11.3266885758        3.9880316516
  S        13.5370818410       11.3232071801        7.1381131735
 Mo        13.5272987070       13.1412379743        5.5651234788
  S        15.1113736914       14.0284330382        3.9887637409
  S        15.1091608899       14.0255386171        7.1453442286
 Mo        15.1160325994       15.8309774620        5.5687644008
  S        16.6948887716       16.7364199586        3.9928429070
  S        16.6912714619       16.7344135449        7.1495632599
 Mo        16.6771120177       18.5290736856        5.5722146593
  S        18.3152178081       19.4851411136        4.0562719842
  S        18.3103285380       19.4854533684        7.0935811670
 Mo        18.1780346441       21.3984143014        5.5738248090
 Mo        12.1373725043        4.9099557933        5.5523459659
  S        13.5336190845        5.8834832088        3.9081339872
  S        13.5319568832        5.8773602190        7.2003837577
 Mo        13.5408274419        7.6885201211        5.5576462512
  S        15.1083774599        8.5897108066        3.9841199022
  S        15.1052246604        8.5857551619        7.1364124335
 Mo        15.1051254841       10.4088378072        5.5627507154
  S        16.6749471025       11.3214318486        3.9908140194
  S        16.6730370357       11.3180906958        7.1392691968
 Mo        16.6851005718       13.1332741703        5.5673149612
  S        18.2660783362       14.0444554499        3.9937928575
  S        18.2643296971       14.0397808092        7.1456822330
 Mo        18.2645891497       15.8495455720        5.5723220236
  S        19.8274575208       16.7610026875        3.9285000229
  S        19.8232212423       16.7563427217        7.2226755192
 Mo        19.9628889034       18.4498197583        5.5775528610
 Mo        14.9125245993        4.8950832963        5.5528235993
  S        16.6627310943        5.7771125719        4.0459000921
  S        16.6535576924        5.7755860841        7.0697252056
 Mo        16.6606943850        7.6795143608        5.5606260410
  S        18.2083210465        8.5951137817        3.9838805299
  S        18.2034587375        8.5962539948        7.1453584877
 Mo        18.2415372614       10.4160323983        5.5650335795
  S        19.8001774298       11.3570805558        3.9847571618
  S        19.8040051382       11.3533424594        7.1458873101
 Mo        19.8277140174       13.1517990997        5.5693546068
  S        21.4744563855       14.1084353814        4.0609617342
  S        21.4782100433       14.0995980025        7.0828513123
 Mo        21.3681085447       16.0558194368        5.5768950794
 Mo        18.3857022449        4.8835213689        5.5652171864
  S        19.7893288233        5.8626232170        3.9498200214
  S        19.7580986182        5.8796583241        7.2004563915
 Mo        19.7641209044        7.7008180370        5.5683637277
  S        21.2854771670        8.6441254455        3.9872683700
  S        21.2968000253        8.6636552790        7.1423958288
 Mo        21.3556454908       10.4528639971        5.5612648574
  S        22.9305200119       11.3664218405        3.9290395853
  S        22.9615320087       11.3475881915        7.1792349426
 Mo        23.1130159441       13.0509406624        5.5640372345
 Mo        21.2760752520        4.9526115812        5.5958196817
  S        22.8346429111        5.9033994151        3.9723095088
  S        22.7193152774        5.9920987157        7.2263973106
 Mo        22.8333553996        7.7627589317        5.5649037331
  S        24.3115135037        8.7442502762        3.9042283519
  S        24.4460823223        8.6885500296        7.1565556277
 Mo        24.4914727276       10.5151856791        5.5333275422
 Mo        24.2136521686        5.1263284890        5.6896727146
  S        25.9366715879        6.0236381573        4.0896599443
  S        25.8854748328        5.9428123783        7.0432993290
 Mo        25.8077502222        7.8800351969        5.4398954913
  S         6.9662929052        3.1511741702        5.5609015089
  S        10.3154723336        3.2521338845        5.5524934960
  S        13.5176307060        3.0153367547        5.5493817960
  S        16.7001214625        3.2093516288        5.5526298834
  S        19.9058659413        3.0573544143        5.6257372774
  S        23.1557882798        3.1561874245        5.7406543883
  S         3.1988621480        9.8268883019        5.5675146397
  S         4.7640747979       12.7231964193        5.5676243339
  S         6.5112814312       15.4046897424        5.5660976808
  S         7.9491814130       18.2366129577        5.5641923730
  S         9.5086754239       20.9118155753        5.5616776820
  S        11.2375045727       23.7416266117        5.5598992179
  S        26.9846544758        9.7830408989        5.3904416214
  S        25.4516877457       12.6510774276        5.5015746019
  S        23.7167019315       15.3562680951        5.5771117757
  S        22.2894429644       18.2149559051        5.5799557732
  S        20.4720256447       20.8685874788        5.5783078421
  S        18.8776207996       23.8141936040        5.5715374582
  H        16.0466000000       12.5808000000        8.5382600000
     133
 i =        4, time =        0.000, E =     -3789.6423565218
  S         4.2607624491        6.0810743825        4.0572262050
  S         4.2725165222        6.0795587013        7.0767385012
 Mo         4.3429960913        7.8884063139        5.5630413714
  S         5.8042371688        8.7577778868        3.9682560125
  S         5.8062220850        8.7534595115        7.1588876632
 Mo         5.7221979020       10.5645515114        5.5652993723
  S         7.2671336077       11.3692780363        3.9371072957
  S         7.2698378931       11.3665479677        7.1917690895
 Mo         7.0905351409       13.0508657228        5.5657668176
  S         8.7321579381       14.1163713998        4.0571403654
  S         8.7331797337       14.1156257536        7.0732730096
 Mo         8.8186899100       16.0708605947        5.5652840180
  S        10.3651166775       16.7908479437        3.9488619959
  S        10.3639547207       16.7915048158        7.1820446597
 Mo        10.3136756814       18.5939054548        5.5647790340
  S        11.8980909566       19.3990020638        3.9572167853
  S        11.8947275855       19.4009653755        7.1742693132
 Mo        11.7946914879       21.1084426765        5.5643505062
  S        13.4277784612       21.9937378091        3.9980293843
  S        13.4231202213       21.9966308734        7.1334659353
 Mo        13.4849218421       23.7463902071        5.5641141076
  S        15.0003871101       24.6635536392        4.0411629044
  S        14.9953338769       24.6682308978        7.0882578736
 Mo         5.9286943483        5.1386769253        5.5628161925
  S         7.3335447460        5.9897890703        3.8908218322
  S         7.3409098857        5.9876735396        7.2281004549
 Mo         7.3473378010        7.7592044025        5.5609125258
  S         8.9023292616        8.6420363855        3.9793112092
  S         8.9049620909        8.6388405674        7.1410812650
 Mo         8.8450318417       10.4509249053        5.5623087360
  S        10.4005661626       11.3606784501        3.9863422299
  S        10.4013887754       11.3577651567        7.1389583556
 Mo        10.3804493775       13.1617392639        5.5643476739
  S        11.9440668608       14.0498895225        3.9869968230
  S        11.9431602104       14.0480560141        7.1434953170
 Mo        11.9479435975       15.8534802021        5.5662122247
  S        13.5357280902       16.7176830184        3.9930064624
  S        13.5331346692       16.7170119229        7.1424072737
 Mo        13.5164810390       18.5156206886        5.5679435739
  S        15.1048929721       19.3824548280        3.9859255959
  S        15.1007029203       19.3834832614        7.1538018179
 Mo        15.0849856147       21.1677274330        5.5689569374
  S        16.6178396641       22.0589836750        3.9031260387
  S        16.6125198376       22.0621640446        7.2381629045
 Mo        16.6428047764       23.7166229360        5.5688071966
 Mo         8.6933476322        4.9716790411        5.5560614572
  S        10.4174111492        5.8178783568        4.0361425133
  S        10.4201809297        5.8139030593        7.0738806570
 Mo        10.4318830089        7.7097703678        5.5578070868
  S        11.9843004513        8.6100927080        3.9813748581
  S        11.9844318331        8.6057835037        7.1363299878
 Mo        11.9684362705       10.4282125563        5.5614100291
  S        13.5383825692       11.3266885758        3.9880316516
  S        13.5370818410       11.3232071801        7.1381131735
 Mo        13.5272987070       13.1412379743        5.5651234788
  S        15.1113736914       14.0284330382        3.9887637409
  S        15.1091608899       14.0255386171        7.1453442286
 Mo        15.1160325994       15.8309774620        5.5687644008