 DBCSR| Multiplication driver                                               XSMM
 DBCSR| Multrec recursion limit                                              512
 DBCSR| Multiplication stack size                                           1000
 DBCSR| Maximum elements for images                                    UNLIMITED
 DBCSR| Multiplicative factor virtual images                                   1
 DBCSR| Randmat seed                                                    12341313
 DBCSR| Multiplication size stacks                                             3
 DBCSR| Number of 3D layers                                               SINGLE
 DBCSR| Use MPI memory allocation                                              T
 DBCSR| Use RMA algorithm                                                      F
 DBCSR| Use Communication thread                                               T
 DBCSR| Communication thread load                                             87


  **** **** ******  **  PROGRAM STARTED AT               2017-06-09 01:27:34.677
 ***** ** ***  *** **   PROGRAM STARTED ON                                  c627
 **    ****   ******    PROGRAM STARTED BY                              jagermar
 ***** **    ** ** **   PROGRAM PROCESS ID                                 23866
  **** **  *******  **  PROGRAM STARTED IN /wrk/jagermar/DONOTREMOVE/critcat/mos
                                           s/cp2k/h_single_tri-hex/fdsmear_pbe_d
                                           zvp-molopt-sr-gth/different_cluster_s
                                           ites_from_pyclusgeo/pes_sp_full_scan_
                                           n4-n11/gopt_n9_cut1_s50/pes_h_n9_cut1
                                           _s50_1_55

 CP2K| version string:                                          CP2K version 4.1
 CP2K| source code revision number:                                    svn:17462
 CP2K| cp2kflags: libint fftw3 libxc parallel mpi3 scalapack libxsmm            
 CP2K| is freely available from                            https://www.cp2k.org/
 CP2K| Program compiled at                          Thu Nov  3 13:22:03 EET 2016
 CP2K| Program compiled on                                   taito-login3.csc.fi
 CP2K| Program compiled for                                       taito_gcc_xsmm
 CP2K| Data directory path                                  /appl/chem/cp2k/data
 CP2K| Input file name                                         pes_h_cluster.inp

 GLOBAL| Force Environment number                                              1
 GLOBAL| Basis set file name                                         ./BASIS_SET
 GLOBAL| Potential file name                                         ./POTENTIAL
 GLOBAL| MM Potential file name                                     MM_POTENTIAL
 GLOBAL| Coordinate file name                                        reftraj.xyz
 GLOBAL| Method name                                                        CP2K
 GLOBAL| Project name                                              pes_h_cluster
 GLOBAL| Preferred FFT library                                             FFTSG
 GLOBAL| Preferred diagonalization lib.                                       SL
 GLOBAL| Run type                                                             MD
 GLOBAL| All-to-all communication in single precision                          F
 GLOBAL| FFTs using library dependent lengths                                  T
 GLOBAL| Global print level                                                  LOW
 GLOBAL| Total number of message passing processes                            48
 GLOBAL| Number of threads for this process                                    1
 GLOBAL| This output is from process                                           0
 GLOBAL| CPU model name :  Intel(R) Xeon(R) CPU E5-2690 v3 @ 2.60GHz

 MEMORY| system memory details [Kb]
 MEMORY|                        rank 0           min           max       average
 MEMORY| MemTotal            132170892     132170892     132170892     132170892
 MEMORY| MemFree             112567196      41531892     112570668      73619460
 MEMORY| Buffers                236012        188064        315028        251687
 MEMORY| Cached                8121580       3326180      53056948      29008403
 MEMORY| Slab                  2951116       1451380      16075384       9124556
 MEMORY| SReclaimable           184880         95984        712668        350611
 MEMORY| MemLikelyFree       121109668      88773444     121111328     103230163


 CELL_TOP| Volume [angstrom^3]:                                        13836.979
 CELL_TOP| Vector a [angstrom    31.790     0.000     0.000    |a| =      31.790
 CELL_TOP| Vector b [angstrom     0.000    29.650     0.000    |b| =      29.650
 CELL_TOP| Vector c [angstrom     0.000     0.000    14.680    |c| =      14.680
 CELL_TOP| Angle (b,c), alpha [degree]:                                   90.000
 CELL_TOP| Angle (a,c), beta  [degree]:                                   90.000
 CELL_TOP| Angle (a,b), gamma [degree]:                                   90.000
 CELL_TOP| Numerically orthorhombic:                                         YES

 GENERATE|  Preliminary Number of Bonds generated:                             0
 GENERATE|  Achieved consistency in connectivity generation.

 CELL| Volume [angstrom^3]:                                            13836.979
 CELL| Vector a [angstrom]:      31.790     0.000     0.000    |a| =      31.790
 CELL| Vector b [angstrom]:       0.000    29.650     0.000    |b| =      29.650
 CELL| Vector c [angstrom]:       0.000     0.000    14.680    |c| =      14.680
 CELL| Angle (b,c), alpha [degree]:                                       90.000
 CELL| Angle (a,c), beta  [degree]:                                       90.000
 CELL| Angle (a,b), gamma [degree]:                                       90.000
 CELL| Numerically orthorhombic:                                             YES

 CELL_REF| Volume [angstrom^3]:                                        13836.979
 CELL_REF| Vector a [angstrom    31.790     0.000     0.000    |a| =      31.790
 CELL_REF| Vector b [angstrom     0.000    29.650     0.000    |b| =      29.650
 CELL_REF| Vector c [angstrom     0.000     0.000    14.680    |c| =      14.680
 CELL_REF| Angle (b,c), alpha [degree]:                                   90.000
 CELL_REF| Angle (a,c), beta  [degree]:                                   90.000
 CELL_REF| Angle (a,b), gamma [degree]:                                   90.000
 CELL_REF| Numerically orthorhombic:                                         YES

 *******************************************************************************
 *******************************************************************************
 **                                                                           **
 **     #####                         ##              ##                      **
 **    ##   ##            ##          ##              ##                      **
 **   ##     ##                       ##            ######                    **
 **   ##     ##  ##   ##  ##   #####  ##  ##   ####   ##    #####    #####    **
 **   ##     ##  ##   ##  ##  ##      ## ##   ##      ##   ##   ##  ##   ##   **
 **   ##  ## ##  ##   ##  ##  ##      ####     ###    ##   ######   ######    **
 **    ##  ###   ##   ##  ##  ##      ## ##      ##   ##   ##       ##        **
 **     #######   #####   ##   #####  ##  ##  ####    ##    #####   ##        **
 **           ##                                                    ##        **
 **                                                                           **
 **                                                ... make the atoms dance   **
 **                                                                           **
 **            Copyright (C) by CP2K developers group (2000 - 2016)           **
 **                                                                           **
 *******************************************************************************


 SCF PARAMETERS         Density guess:                                   RESTART
                        --------------------------------------------------------
                        max_scf:                                            2000
                        max_scf_history:                                       0
                        max_diis:                                              4
                        --------------------------------------------------------
                        eps_scf:                                        1.00E-06
                        eps_scf_history:                                0.00E+00
                        eps_diis:                                       1.00E-01
                        eps_eigval:                                     1.00E-05
                        --------------------------------------------------------
                        level_shift [a.u.]:                                 0.00
                        added MOs                                       500  500
                        --------------------------------------------------------
                        Mixing method:                            BROYDEN_MIXING
                                                charge density mixing in g-space
                        --------------------------------------------------------
                        Smear method:                                FERMI_DIRAC
                        Electronic temperature [K]:                        250.0
                        Electronic temperature [a.u.]:                  7.92E-04
                        Accuracy threshold:                             1.00E-10
                        --------------------------------------------------------
                        No outer SCF

 MD| Molecular Dynamics Protocol 
 MD| Ensemble Type                                                       REFTRAJ
 MD| Number of Time Steps                                                     55
 MD| Time Step [fs]                                                         0.50
 MD| Temperature [K]                                                      300.00
 MD| Temperature tolerance [K]                                              0.00
 MD| Print MD information every                                        1 step(s)
 MD| File type     Print frequency[steps]                             File names
 MD| Coordinates            1                            pes_h_cluster-pos-1.xyz
 MD| Velocities             1                            pes_h_cluster-vel-1.xyz
 MD| Energies               1                               pes_h_cluster-1.ener
 MD| Dump                  20                            pes_h_cluster-1.restart

 ROT| Rotational Analysis Info 
 ROT| Principal axes and moments of inertia in atomic units:
 ROT|                                1                 2                 3
 ROT| EIGENVALUES            0.147613210E+10   0.148537807E+10   0.288616448E+10
 ROT|      X                    -0.891013908       0.453975995      -0.000113068
 ROT|      Y                     0.453975998       0.891013913       0.000001013
 ROT|      Z                    -0.000101205       0.000050428       0.999999994
 ROT| Numer of Rotovibrational vectors:     6

 Calculation of degrees of freedom
                                                      Number of atoms:       133
                                 Number of Intramolecular constraints:         0
                                 Number of Intermolecular constraints:         0
                                  Invariants(translation + rotations):         6
                                                   Degrees of freedom:       393


 Restraints Information
                                  Number of Intramolecular restraints:         0
                                  Number of Intermolecular restraints:         0
 ************************** Velocities initialization **************************
 Initial Temperature                                                    300.00 K
 COM velocity:           -0.000000000000      0.000000000000     -0.000000000000
 COM position:           30.036032253430     24.973828811501     12.491651773941
 Angular velocity:        0.000000577401      0.000000304993     -0.000000255844
 *******************************************************************************


 Spin 1

 Number of electrons:                                                        565
 Number of occupied orbitals:                                                565
 Number of molecular orbitals:                                              1065

 Spin 2

 Number of electrons:                                                        564
 Number of occupied orbitals:                                                564
 Number of molecular orbitals:                                              1064

 Number of orbital functions:                                               2267
 Number of independent orbital functions:                                   2267

 Extrapolation method: initial_guess

 *** WARNING in qs_initial_guess.F:262 :: User requested to restart the    ***
 *** wavefunction from the file named: pes_h_cluster-RESTART-1.wfn. This   ***
 *** file does not exist. Please check the existence of the file or change ***
 *** properly the value of the keyword WFN_RESTART_FILE_NAME. Calculation  ***
 *** continues using ATOMIC GUESS.                                         ***



 SCF WAVEFUNCTION OPTIMIZATION

  Step     Update method      Time    Convergence         Total energy    Change
  ------------------------------------------------------------------------------
     1 NoMix/Diag. 0.10E+00    7.7     0.43829691     -3801.5967577566 -3.80E+03
     2 Broy./Diag. 0.10E+00    9.6     0.05643051     -3864.8466287658 -6.32E+01
     3 Broy./Diag. 0.10E+00    9.6     0.21832784     -3840.2477327719  2.46E+01
     4 Broy./Diag. 0.10E+00    9.9     0.06885662     -3784.0348553613  5.62E+01
     5 Broy./Diag. 0.10E+00    9.9     0.03363506     -3791.9666379596 -7.93E+00
     6 Broy./Diag. 0.10E+00    9.8     0.02445993     -3787.9572305355  4.01E+00
     7 Broy./Diag. 0.10E+00   10.4     0.03772632     -3787.8469450465  1.10E-01
     8 Broy./Diag. 0.10E+00   10.1     0.02052857     -3790.2800999416 -2.43E+00
     9 Broy./Diag. 0.10E+00    9.8     0.01046690     -3789.3280846386  9.52E-01
    10 Broy./Diag. 0.10E+00   10.2     0.01000514     -3788.6527959169  6.75E-01
    11 Broy./Diag. 0.10E+00   10.1     0.01714963     -3789.1615098142 -5.09E-01
    12 Broy./Diag. 0.10E+00    9.9     0.01068906     -3788.9400701948  2.21E-01
    13 Broy./Diag. 0.10E+00   10.0     0.00793935     -3789.0704407308 -1.30E-01
    14 Broy./Diag. 0.10E+00   10.1     0.01253276     -3789.0882641351 -1.78E-02
    15 Broy./Diag. 0.10E+00   10.3     0.01061981     -3789.2676137856 -1.79E-01
    16 Broy./Diag. 0.10E+00   10.0     0.00725274     -3789.3702949035 -1.03E-01
    17 Broy./Diag. 0.10E+00   10.1     0.00553931     -3789.4015703777 -3.13E-02
    18 Broy./Diag. 0.10E+00    9.9     0.00374188     -3789.4834109445 -8.18E-02
    19 Broy./Diag. 0.10E+00   10.0     0.00346704     -3789.5442135109 -6.08E-02
    20 Broy./Diag. 0.10E+00   10.0     0.00163691     -3789.6160110735 -7.18E-02
    21 Broy./Diag. 0.10E+00   10.2     0.00676533     -3789.6568709665 -4.09E-02
    22 Broy./Diag. 0.10E+00   10.1     0.00300219     -3789.6466464168  1.02E-02
    23 Broy./Diag. 0.10E+00    9.8     0.00302214     -3789.6428022337  3.84E-03
    24 Broy./Diag. 0.10E+00   10.3     0.00477830     -3789.6303296227  1.25E-02
    25 Broy./Diag. 0.10E+00   10.1     0.00296305     -3789.6324901334 -2.16E-03
    26 Broy./Diag. 0.10E+00    9.9     0.00449173     -3789.6291713822  3.32E-03
    27 Broy./Diag. 0.10E+00    9.8     0.00120384     -3789.6270818535  2.09E-03
    28 Broy./Diag. 0.10E+00   10.3     0.00139822     -3789.6214470904  5.63E-03
    29 Broy./Diag. 0.10E+00   10.0     0.00102938     -3789.6254689097 -4.02E-03
    30 Broy./Diag. 0.10E+00   10.1     0.00145930     -3789.6340334945 -8.56E-03
    31 Broy./Diag. 0.10E+00   10.1     0.00127548     -3789.6415615949 -7.53E-03
    32 Broy./Diag. 0.10E+00   10.1     0.00195630     -3789.6394871587  2.07E-03
    33 Broy./Diag. 0.10E+00   10.1     0.00023249     -3789.6379565994  1.53E-03
    34 Broy./Diag. 0.10E+00    9.9     0.00037950     -3789.6350520288  2.90E-03
    35 Broy./Diag. 0.10E+00   10.1     0.00213978     -3789.6358327327 -7.81E-04
    36 Broy./Diag. 0.10E+00   10.2     0.00027966     -3789.6376915577 -1.86E-03
    37 Broy./Diag. 0.10E+00    9.8     0.00461345     -3789.6375943089  9.72E-05
    38 Broy./Diag. 0.10E+00   10.3     0.00704214     -3789.6378371560 -2.43E-04
    39 Broy./Diag. 0.10E+00   10.0     0.00784277     -3789.6364506700  1.39E-03
    40 Broy./Diag. 0.10E+00    9.9     0.00050043     -3789.6364616741 -1.10E-05
    41 Broy./Diag. 0.10E+00   10.0     0.00205972     -3789.6360749912  3.87E-04
    42 Broy./Diag. 0.10E+00   10.1     0.00326833     -3789.6355590641  5.16E-04
    43 Broy./Diag. 0.10E+00   10.2     0.00212871     -3789.6362167490 -6.58E-04
    44 Broy./Diag. 0.10E+00    9.9     0.00785015     -3789.6356304292  5.86E-04
    45 Broy./Diag. 0.10E+00   10.3     0.01087401     -3789.6358517888 -2.21E-04
    46 Broy./Diag. 0.10E+00   10.1     0.00122352     -3789.6345914661  1.26E-03
    47 Broy./Diag. 0.10E+00   10.0     0.00281376     -3789.6349198656 -3.28E-04
    48 Broy./Diag. 0.10E+00    9.9     0.00283499     -3789.6348488069  7.11E-05
    49 Broy./Diag. 0.10E+00   10.2     0.00196318     -3789.6359909172 -1.14E-03
    50 Broy./Diag. 0.10E+00   10.2     0.00087450     -3789.6359177747  7.31E-05
    51 Broy./Diag. 0.10E+00   10.1     0.00195087     -3789.6361914535 -2.74E-04
    52 Broy./Diag. 0.10E+00   10.2     0.00133118     -3789.6362910751 -9.96E-05
    53 Broy./Diag. 0.10E+00   10.0     0.00144674     -3789.6367731366 -4.82E-04
    54 Broy./Diag. 0.10E+00   10.0     0.00149632     -3789.6367565551  1.66E-05
    55 Broy./Diag. 0.10E+00    9.8     0.00235702     -3789.6360922127  6.64E-04
    56 Broy./Diag. 0.10E+00   10.1     0.00105357     -3789.6385568739 -2.46E-03
    57 Broy./Diag. 0.10E+00   10.3     0.00065735     -3789.6410993658 -2.54E-03
    58 Broy./Diag. 0.10E+00   10.2     0.00050657     -3789.6413038020 -2.04E-04
    59 Broy./Diag. 0.10E+00   10.2     0.00082246     -3789.6411827058  1.21E-04
    60 Broy./Diag. 0.10E+00   11.2     0.00210279     -3789.6411887415 -6.04E-06
    61 Broy./Diag. 0.10E+00    9.9     0.00052777     -3789.6401261444  1.06E-03
    62 Broy./Diag. 0.10E+00    9.8     0.00078443     -3789.6394719162  6.54E-04
    63 Broy./Diag. 0.10E+00   10.0     0.00038802     -3789.6387230860  7.49E-04
    64 Broy./Diag. 0.10E+00   10.0     0.00263729     -3789.6391286757 -4.06E-04
    65 Broy./Diag. 0.10E+00    9.8     0.00029287     -3789.6333871351  5.74E-03
    66 Broy./Diag. 0.10E+00   10.0     0.00104576     -3789.6336202765 -2.33E-04
    67 Broy./Diag. 0.10E+00   10.0     0.00092283     -3789.6335145593  1.06E-04
    68 Broy./Diag. 0.10E+00   10.1     0.00117742     -3789.6375747855 -4.06E-03
    69 Broy./Diag. 0.10E+00   10.0     0.00123910     -3789.6384592083 -8.84E-04
    70 Broy./Diag. 0.10E+00   10.4     0.00079359     -3789.6386444915 -1.85E-04
    71 Broy./Diag. 0.10E+00    9.9     0.00018596     -3789.6385845945  5.99E-05
    72 Broy./Diag. 0.10E+00   10.1     0.00048980     -3789.6392304917 -6.46E-04
    73 Broy./Diag. 0.10E+00   10.1     0.00128478     -3789.6392115495  1.89E-05
    74 Broy./Diag. 0.10E+00   10.1     0.00084249     -3789.6379858427  1.23E-03
    75 Broy./Diag. 0.10E+00   10.0     0.00104637     -3789.6383619641 -3.76E-04
    76 Broy./Diag. 0.10E+00   10.4     0.00172321     -3789.6378616069  5.00E-04
    77 Broy./Diag. 0.10E+00   10.2     0.00117023     -3789.6381728155 -3.11E-04
    78 Broy./Diag. 0.10E+00    9.8     0.00160551     -3789.6382941252 -1.21E-04
    79 Broy./Diag. 0.10E+00    9.9     0.00108494     -3789.6381056288  1.88E-04
    80 Broy./Diag. 0.10E+00   10.1     0.00031275     -3789.6382411695 -1.36E-04
    81 Broy./Diag. 0.10E+00   10.0     0.00101666     -3789.6379029775  3.38E-04
    82 Broy./Diag. 0.10E+00    9.6     0.00168180     -3789.6375230852  3.80E-04
    83 Broy./Diag. 0.10E+00   10.2     0.00091367     -3789.6375638662 -4.08E-05
    84 Broy./Diag. 0.10E+00    9.9     0.00052836     -3789.6374371975  1.27E-04
    85 Broy./Diag. 0.10E+00    9.9     0.00108509     -3789.6375019148 -6.47E-05
    86 Broy./Diag. 0.10E+00    9.9     0.00033997     -3789.6375225649 -2.07E-05
    87 Broy./Diag. 0.10E+00   10.3     0.00164703     -3789.6378379486 -3.15E-04
    88 Broy./Diag. 0.10E+00   10.4     0.00139090     -3789.6379624967 -1.25E-04
    89 Broy./Diag. 0.10E+00   10.0     0.00255437     -3789.6381032159 -1.41E-04
    90 Broy./Diag. 0.10E+00   10.1     0.00130143     -3789.6383731857 -2.70E-04
    91 Broy./Diag. 0.10E+00   10.1     0.00219861     -3789.6383673192  5.87E-06
    92 Broy./Diag. 0.10E+00    9.9     0.00175863     -3789.6386585531 -2.91E-04
    93 Broy./Diag. 0.10E+00    9.8     0.00128731     -3789.6387371785 -7.86E-05
    94 Broy./Diag. 0.10E+00   10.2     0.00123956     -3789.6388629181 -1.26E-04
    95 Broy./Diag. 0.10E+00   10.1     0.00242464     -3789.6390404168 -1.77E-04
    96 Broy./Diag. 0.10E+00   10.1     0.00036399     -3789.6390241046  1.63E-05
    97 Broy./Diag. 0.10E+00    9.8     0.00101679     -3789.6391139907 -8.99E-05
    98 Broy./Diag. 0.10E+00   10.3     0.00142701     -3789.6391628876 -4.89E-05
    99 Broy./Diag. 0.10E+00   10.1     0.00086396     -3789.6393322295 -1.69E-04
   100 Broy./Diag. 0.10E+00   10.0     0.00034234     -3789.6391028510  2.29E-04
   101 Broy./Diag. 0.10E+00   10.4     0.00048065     -3789.6392440191 -1.41E-04
   102 Broy./Diag. 0.10E+00   10.1     0.00064711     -3789.6392531292 -9.11E-06
   103 Broy./Diag. 0.10E+00    9.9     0.00009497     -3789.6392672735 -1.41E-05
   104 Broy./Diag. 0.10E+00    9.9     0.00022812     -3789.6391903231  7.70E-05
   105 Broy./Diag. 0.10E+00   10.5     0.00273167     -3789.6391141985  7.61E-05
   106 Broy./Diag. 0.10E+00   10.1     0.00038453     -3789.6387685150  3.46E-04
   107 Broy./Diag. 0.10E+00   10.2     0.00016460     -3789.6388893130 -1.21E-04
   108 Broy./Diag. 0.10E+00   10.0     0.00011294     -3789.6389435049 -5.42E-05
   109 Broy./Diag. 0.10E+00   10.0     0.00043828     -3789.6389517442 -8.24E-06
   110 Broy./Diag. 0.10E+00   10.3     0.00028069     -3789.6388953186  5.64E-05
   111 Broy./Diag. 0.10E+00    9.9     0.00170210     -3789.6391298584 -2.35E-04
   112 Broy./Diag. 0.10E+00   10.2     0.00028968     -3789.6391072663  2.26E-05
   113 Broy./Diag. 0.10E+00   10.1     0.00053822     -3789.6390600775  4.72E-05
   114 Broy./Diag. 0.10E+00   10.3     0.00110423     -3789.6390303210  2.98E-05
   115 Broy./Diag. 0.10E+00   10.1     0.00095759     -3789.6390577066 -2.74E-05
   116 Broy./Diag. 0.10E+00   10.3     0.00124726     -3789.6391076315 -4.99E-05
   117 Broy./Diag. 0.10E+00   10.1     0.00138890     -3789.6390604013  4.72E-05
   118 Broy./Diag. 0.10E+00   10.2     0.00002542     -3789.6389840229  7.64E-05
   119 Broy./Diag. 0.10E+00   10.0     0.00018163     -3789.6390257732 -4.18E-05
   120 Broy./Diag. 0.10E+00   10.3     0.00088009     -3789.6390836127 -5.78E-05
   121 Broy./Diag. 0.10E+00   10.3     0.00172542     -3789.6388671903  2.16E-04
   122 Broy./Diag. 0.10E+00   11.0     0.00138736     -3789.6391490191 -2.82E-04
   123 Broy./Diag. 0.10E+00   10.0     0.00091660     -3789.6390432899  1.06E-04
   124 Broy./Diag. 0.10E+00   10.1     0.00136061     -3789.6391122776 -6.90E-05
   125 Broy./Diag. 0.10E+00   10.2     0.00112927     -3789.6389208911  1.91E-04
   126 Broy./Diag. 0.10E+00    9.8     0.00065024     -3789.6389118790  9.01E-06
   127 Broy./Diag. 0.10E+00   10.3     0.00127617     -3789.6390265613 -1.15E-04
   128 Broy./Diag. 0.10E+00   10.0     0.00004735     -3789.6389366065  9.00E-05
   129 Broy./Diag. 0.10E+00    9.9     0.00005508     -3789.6389650081 -2.84E-05
   130 Broy./Diag. 0.10E+00    9.9     0.00021486     -3789.6389898272 -2.48E-05
   131 Broy./Diag. 0.10E+00   10.0     0.00028384     -3789.6390518867 -6.21E-05
   132 Broy./Diag. 0.10E+00   10.1     0.00056455     -3789.6389808722  7.10E-05
   133 Broy./Diag. 0.10E+00   10.1     0.00016441     -3789.6390043028 -2.34E-05
   134 Broy./Diag. 0.10E+00   10.4     0.00057726     -3789.6390390563 -3.48E-05
   135 Broy./Diag. 0.10E+00   10.1     0.00073296     -3789.6390406307 -1.57E-06
   136 Broy./Diag. 0.10E+00   10.0     0.00016371     -3789.6390635013 -2.29E-05
   137 Broy./Diag. 0.10E+00   10.0     0.00093044     -3789.6390890038 -2.55E-05
   138 Broy./Diag. 0.10E+00   10.2     0.00019717     -3789.6389700646  1.19E-04
   139 Broy./Diag. 0.10E+00   10.1     0.00001981     -3789.6390103837 -4.03E-05
   140 Broy./Diag. 0.10E+00    9.9     0.00008652     -3789.6390308362 -2.05E-05
   141 Broy./Diag. 0.10E+00   10.2     0.00102794     -3789.6389441990  8.66E-05
   142 Broy./Diag. 0.10E+00   10.2     0.00070793     -3789.6390126745 -6.85E-05
   143 Broy./Diag. 0.10E+00   10.1     0.00007849     -3789.6391280195 -1.15E-04
   144 Broy./Diag. 0.10E+00   10.1     0.00041542     -3789.6391235841  4.44E-06
   145 Broy./Diag. 0.10E+00   10.3     0.00047346     -3789.6391005808  2.30E-05
   146 Broy./Diag. 0.10E+00   10.1     0.00044420     -3789.6390851882  1.54E-05
   147 Broy./Diag. 0.10E+00   10.0     0.00033196     -3789.6390899613 -4.77E-06
   148 Broy./Diag. 0.10E+00   10.1     0.00048981     -3789.6388723491  2.18E-04
   149 Broy./Diag. 0.10E+00   10.0     0.00003254     -3789.6389238817 -5.15E-05
   150 Broy./Diag. 0.10E+00   10.0     0.00002082     -3789.6389346132 -1.07E-05
   151 Broy./Diag. 0.10E+00   10.0     0.00003822     -3789.6389089309  2.57E-05
   152 Broy./Diag. 0.10E+00   10.4     0.00017240     -3789.6389080305  9.00E-07
   153 Broy./Diag. 0.10E+00   10.3     0.00009537     -3789.6389144471 -6.42E-06
   154 Broy./Diag. 0.10E+00   10.0     0.00101913     -3789.6389044066  1.00E-05
   155 Broy./Diag. 0.10E+00   10.0     0.00080007     -3789.6389719312 -6.75E-05
   156 Broy./Diag. 0.10E+00   10.2     0.00022875     -3789.6389233628  4.86E-05
   157 Broy./Diag. 0.10E+00   10.3     0.00076303     -3789.6389121038  1.13E-05
   158 Broy./Diag. 0.10E+00   10.0     0.00045850     -3789.6388701396  4.20E-05
   159 Broy./Diag. 0.10E+00   10.3     0.00005924     -3789.6388544864  1.57E-05
   160 Broy./Diag. 0.10E+00   10.1     0.00004569     -3789.6388508609  3.63E-06
   161 Broy./Diag. 0.10E+00    9.9     0.00004517     -3789.6388457944  5.07E-06
   162 Broy./Diag. 0.10E+00    9.9     0.00033965     -3789.6388030016  4.28E-05
   163 Broy./Diag. 0.10E+00   10.3     0.00089708     -3789.6388761176 -7.31E-05
   164 Broy./Diag. 0.10E+00    9.8     0.00010533     -3789.6389043378 -2.82E-05
   165 Broy./Diag. 0.10E+00   10.2     0.00043999     -3789.6389158130 -1.15E-05
   166 Broy./Diag. 0.10E+00   10.2     0.00019519     -3789.6390932675 -1.77E-04
   167 Broy./Diag. 0.10E+00   10.1     0.00058763     -3789.6392287865 -1.36E-04
   168 Broy./Diag. 0.10E+00    9.8     0.00017238     -3789.6391934835  3.53E-05
   169 Broy./Diag. 0.10E+00   10.0     0.00009470     -3789.6390108834  1.83E-04
   170 Broy./Diag. 0.10E+00   10.2     0.00022498     -3789.6390148121 -3.93E-06
   171 Broy./Diag. 0.10E+00   10.3     0.00005437     -3789.6389720036  4.28E-05
   172 Broy./Diag. 0.10E+00   11.1     0.00014601     -3789.6389470637  2.49E-05
   173 Broy./Diag. 0.10E+00   10.0     0.00023726     -3789.6389858016 -3.87E-05
   174 Broy./Diag. 0.10E+00   10.1     0.00026965     -3789.6389832261  2.58E-06
   175 Broy./Diag. 0.10E+00    9.8     0.00014448     -3789.6389301820  5.30E-05
   176 Broy./Diag. 0.10E+00    9.9     0.00024935     -3789.6389722107 -4.20E-05
   177 Broy./Diag. 0.10E+00   10.2     0.00010243     -3789.6391988695 -2.27E-04
   178 Broy./Diag. 0.10E+00   10.1     0.00034200     -3789.6392710333 -7.22E-05
   179 Broy./Diag. 0.10E+00   10.1     0.00034791     -3789.6393734681 -1.02E-04
   180 Broy./Diag. 0.10E+00   10.3     0.00025686     -3789.6395120689 -1.39E-04
   181 Broy./Diag. 0.10E+00   10.2     0.00048344     -3789.6393916189  1.20E-04
   182 Broy./Diag. 0.10E+00   10.3     0.00032568     -3789.6394135388 -2.19E-05
   183 Broy./Diag. 0.10E+00   10.0     0.00040937     -3789.6393522822  6.13E-05
   184 Broy./Diag. 0.10E+00   10.3     0.00105384     -3789.6393527555 -4.73E-07
   185 Broy./Diag. 0.10E+00   10.1     0.00013419     -3789.6393047362  4.80E-05
   186 Broy./Diag. 0.10E+00   10.1     0.00004648     -3789.6393017550  2.98E-06
   187 Broy./Diag. 0.10E+00    9.8     0.00022827     -3789.6393149686 -1.32E-05
   188 Broy./Diag. 0.10E+00   10.4     0.00024691     -3789.6392884550  2.65E-05
   189 Broy./Diag. 0.10E+00   10.1     0.00008773     -3789.6393458124 -5.74E-05
   190 Broy./Diag. 0.10E+00    9.9     0.00024643     -3789.6393694362 -2.36E-05
   191 Broy./Diag. 0.10E+00   10.0     0.00012864     -3789.6393405323  2.89E-05
   192 Broy./Diag. 0.10E+00    9.7     0.00010391     -3789.6393820147 -4.15E-05
   193 Broy./Diag. 0.10E+00    9.9     0.00013939     -3789.6393358631  4.62E-05
   194 Broy./Diag. 0.10E+00    9.9     0.00025259     -3789.6394000401 -6.42E-05
   195 Broy./Diag. 0.10E+00   10.1     0.00025809     -3789.6393123546  8.77E-05
   196 Broy./Diag. 0.10E+00   10.2     0.00067079     -3789.6391975001  1.15E-04
   197 Broy./Diag. 0.10E+00   10.0     0.00006514     -3789.6391193714  7.81E-05
   198 Broy./Diag. 0.10E+00   10.3     0.00019865     -3789.6390740332  4.53E-05
   199 Broy./Diag. 0.10E+00   10.3     0.00025995     -3789.6390906178 -1.66E-05
   200 Broy./Diag. 0.10E+00   10.0     0.00031625     -3789.6391058097 -1.52E-05
   201 Broy./Diag. 0.10E+00   10.0     0.00014206     -3789.6390891125  1.67E-05
   202 Broy./Diag. 0.10E+00   10.0     0.00018065     -3789.6391742237 -8.51E-05
   203 Broy./Diag. 0.10E+00   10.1     0.00022956     -3789.6392055381 -3.13E-05
   204 Broy./Diag. 0.10E+00    9.9     0.00008328     -3789.6392525510 -4.70E-05
   205 Broy./Diag. 0.10E+00   10.2     0.00007661     -3789.6393004594 -4.79E-05
   206 Broy./Diag. 0.10E+00   10.1     0.00025872     -3789.6393210151 -2.06E-05
   207 Broy./Diag. 0.10E+00   10.0     0.00007981     -3789.6392113937  1.10E-04
   208 Broy./Diag. 0.10E+00    9.7     0.00005985     -3789.6390611734  1.50E-04
   209 Broy./Diag. 0.10E+00   10.0     0.00016468     -3789.6390015164  5.97E-05
   210 Broy./Diag. 0.10E+00   10.1     0.00108544     -3789.6389946795  6.84E-06
   211 Broy./Diag. 0.10E+00    9.9     0.00019018     -3789.6390083093 -1.36E-05
   212 Broy./Diag. 0.10E+00   10.2     0.00037463     -3789.6389684037  3.99E-05
   213 Broy./Diag. 0.10E+00   10.0     0.00073568     -3789.6389710210 -2.62E-06
   214 Broy./Diag. 0.10E+00   10.0     0.00046647     -3789.6389674051  3.62E-06
   215 Broy./Diag. 0.10E+00    9.9     0.00013228     -3789.6390113858 -4.40E-05
   216 Broy./Diag. 0.10E+00   10.1     0.00053678     -3789.6389666929  4.47E-05
   217 Broy./Diag. 0.10E+00   10.3     0.00033640     -3789.6389242039  4.25E-05
   218 Broy./Diag. 0.10E+00   10.1     0.00037085     -3789.6389427598 -1.86E-05
   219 Broy./Diag. 0.10E+00   10.3     0.00023224     -3789.6389719300 -2.92E-05
   220 Broy./Diag. 0.10E+00   10.8     0.00236378     -3789.6389191839  5.27E-05
   221 Broy./Diag. 0.10E+00    9.8     0.00050909     -3789.6389987973 -7.96E-05
   222 Broy./Diag. 0.10E+00    9.8     0.00088356     -3789.6390346789 -3.59E-05
   223 Broy./Diag. 0.10E+00   10.1     0.00047846     -3789.6390656997 -3.10E-05
   224 Broy./Diag. 0.10E+00   10.1     0.00006300     -3789.6390943082 -2.86E-05
   225 Broy./Diag. 0.10E+00   10.0     0.00005302     -3789.6391100827 -1.58E-05
   226 Broy./Diag. 0.10E+00   10.0     0.00003364     -3789.6391279220 -1.78E-05
   227 Broy./Diag. 0.10E+00   10.1     0.00000847     -3789.6391475422 -1.96E-05
   228 Broy./Diag. 0.10E+00   10.2     0.00001824     -3789.6391791874 -3.16E-05
   229 Broy./Diag. 0.10E+00   10.1     0.00011067     -3789.6391963794 -1.72E-05
   230 Broy./Diag. 0.10E+00   10.2     0.00016709     -3789.6392134509 -1.71E-05
   231 Broy./Diag. 0.10E+00   10.2     0.00017673     -3789.6392007749  1.27E-05
   232 Broy./Diag. 0.10E+00   10.0     0.00033308     -3789.6391792901  2.15E-05
   233 Broy./Diag. 0.10E+00    9.8     0.00011876     -3789.6391090916  7.02E-05
   234 Broy./Diag. 0.10E+00   10.0     0.00006528     -3789.6390473749  6.17E-05
   235 Broy./Diag. 0.10E+00   10.2     0.00009785     -3789.6389637943  8.36E-05
   236 Broy./Diag. 0.10E+00    9.9     0.00001379     -3789.6389014148  6.24E-05
   237 Broy./Diag. 0.10E+00    9.9     0.00021005     -3789.6388343914  6.70E-05
   238 Broy./Diag. 0.10E+00    9.8     0.00002553     -3789.6388239123  1.05E-05
   239 Broy./Diag. 0.10E+00   10.1     0.00002066     -3789.6388096870  1.42E-05
   240 Broy./Diag. 0.10E+00    9.8     0.00004009     -3789.6388137688 -4.08E-06
   241 Broy./Diag. 0.10E+00    9.8     0.00005016     -3789.6388022220  1.15E-05
   242 Broy./Diag. 0.10E+00    9.9     0.00007044     -3789.6387940543  8.17E-06
   243 Broy./Diag. 0.10E+00   10.1     0.00009494     -3789.6387944396 -3.85E-07
   244 Broy./Diag. 0.10E+00    9.9     0.00002884     -3789.6387926331  1.81E-06
   245 Broy./Diag. 0.10E+00    9.9     0.00007568     -3789.6387996942 -7.06E-06
   246 Broy./Diag. 0.10E+00   10.0     0.00006166     -3789.6388096277 -9.93E-06
   247 Broy./Diag. 0.10E+00    9.9     0.00014373     -3789.6388053740  4.25E-06
   248 Broy./Diag. 0.10E+00    9.9     0.00010059     -3789.6388056103 -2.36E-07
   249 Broy./Diag. 0.10E+00    9.8     0.00003606     -3789.6388081326 -2.52E-06
   250 Broy./Diag. 0.10E+00   10.4     0.00002260     -3789.6387964829  1.16E-05
   251 Broy./Diag. 0.10E+00   10.0     0.00001460     -3789.6387766427  1.98E-05
   252 Broy./Diag. 0.10E+00   10.0     0.00001551     -3789.6387655564  1.11E-05
   253 Broy./Diag. 0.10E+00    9.9     0.00004498     -3789.6387623596  3.20E-06
   254 Broy./Diag. 0.10E+00   10.2     0.00003120     -3789.6387597327  2.63E-06
   255 Broy./Diag. 0.10E+00   10.1     0.00003168     -3789.6387627364 -3.00E-06
   256 Broy./Diag. 0.10E+00   10.0     0.00002083     -3789.6387706721 -7.94E-06
   257 Broy./Diag. 0.10E+00   10.1     0.00010706     -3789.6387662153  4.46E-06
   258 Broy./Diag. 0.10E+00   10.0     0.00013235     -3789.6387663891 -1.74E-07
   259 Broy./Diag. 0.10E+00    9.8     0.00002849     -3789.6387759766 -9.59E-06
   260 Broy./Diag. 0.10E+00    9.7     0.00010419     -3789.6387806490 -4.67E-06
   261 Broy./Diag. 0.10E+00   10.4     0.00015345     -3789.6387801706  4.78E-07
   262 Broy./Diag. 0.10E+00    9.9     0.00004639     -3789.6387780188  2.15E-06
   263 Broy./Diag. 0.10E+00   10.1     0.00010122     -3789.6387788855 -8.67E-07
   264 Broy./Diag. 0.10E+00   10.3     0.00008457     -3789.6387758951  2.99E-06
   265 Broy./Diag. 0.10E+00   10.0     0.00018273     -3789.6387738032  2.09E-06
   266 Broy./Diag. 0.10E+00   10.1     0.00007136     -3789.6387794678 -5.66E-06
   267 Broy./Diag. 0.10E+00    9.9     0.00008487     -3789.6387808308 -1.36E-06
   268 Broy./Diag. 0.10E+00   10.2     0.00006726     -3789.6387660681  1.48E-05
   269 Broy./Diag. 0.10E+00   10.4     0.00002130     -3789.6387515925  1.45E-05
   270 Broy./Diag. 0.10E+00   10.0     0.00002763     -3789.6387550744 -3.48E-06
   271 Broy./Diag. 0.10E+00    9.9     0.00002377     -3789.6387619223 -6.85E-06
   272 Broy./Diag. 0.10E+00   10.1     0.00005459     -3789.6387616527  2.70E-07
   273 Broy./Diag. 0.10E+00   10.3     0.00000891     -3789.6387620546 -4.02E-07
   274 Broy./Diag. 0.10E+00   10.5     0.00005466     -3789.6387623521 -2.97E-07
   275 Broy./Diag. 0.10E+00   10.0     0.00008940     -3789.6387608909  1.46E-06
   276 Broy./Diag. 0.10E+00   10.0     0.00004416     -3789.6387576286  3.26E-06
   277 Broy./Diag. 0.10E+00   10.0     0.00001231     -3789.6387587667 -1.14E-06
   278 Broy./Diag. 0.10E+00    9.9     0.00000922     -3789.6387587088  5.79E-08
   279 Broy./Diag. 0.10E+00   10.1     0.00000255     -3789.6387559302  2.78E-06
   280 Broy./Diag. 0.10E+00   10.0     0.00001568     -3789.6387553414  5.89E-07
   281 Broy./Diag. 0.10E+00    9.9     0.00000550     -3789.6387532883  2.05E-06
   282 Broy./Diag. 0.10E+00    9.8     0.00000620     -3789.6387523448  9.43E-07
   283 Broy./Diag. 0.10E+00   10.2     0.00000188     -3789.6387540112 -1.67E-06
   284 Broy./Diag. 0.10E+00   10.2     0.00000334     -3789.6387535788  4.32E-07
   285 Broy./Diag. 0.10E+00   10.1     0.00002485     -3789.6387528520  7.27E-07
   286 Broy./Diag. 0.10E+00   10.1     0.00001603     -3789.6387539813 -1.13E-06
   287 Broy./Diag. 0.10E+00   10.1     0.00002233     -3789.6387538550  1.26E-07
   288 Broy./Diag. 0.10E+00    9.8     0.00001851     -3789.6387539657 -1.11E-07
   289 Broy./Diag. 0.10E+00   10.2     0.00001272     -3789.6387560635 -2.10E-06
   290 Broy./Diag. 0.10E+00   10.2     0.00000258     -3789.6387599142 -3.85E-06
   291 Broy./Diag. 0.10E+00   10.2     0.00000115     -3789.6387586001  1.31E-06
   292 Broy./Diag. 0.10E+00   10.0     0.00000460     -3789.6387567511  1.85E-06
   293 Broy./Diag. 0.10E+00   10.2     0.00000145     -3789.6387560406  7.10E-07
   294 Broy./Diag. 0.10E+00   10.0     0.00000171     -3789.6387560953 -5.47E-08
   295 Broy./Diag. 0.10E+00   10.2     0.00002846     -3789.6387574393 -1.34E-06
   296 Broy./Diag. 0.10E+00    9.9     0.00001169     -3789.6387569764  4.63E-07
   297 Broy./Diag. 0.10E+00   10.3     0.00000331     -3789.6387596492 -2.67E-06
   298 Broy./Diag. 0.10E+00   10.1     0.00007612     -3789.6387586684  9.81E-07
   299 Broy./Diag. 0.10E+00   10.1     0.00006051     -3789.6387559550  2.71E-06
   300 Broy./Diag. 0.10E+00   10.0     0.00005216     -3789.6387538605  2.09E-06
   301 Broy./Diag. 0.10E+00   10.0     0.00000635     -3789.6387581170 -4.26E-06
   302 Broy./Diag. 0.10E+00   10.2     0.00000972     -3789.6387593438 -1.23E-06
   303 Broy./Diag. 0.10E+00   10.1     0.00000133     -3789.6387618328 -2.49E-06
   304 Broy./Diag. 0.10E+00   10.1     0.00000078     -3789.6387612217  6.11E-07

  *** SCF run converged in   304 steps ***


  Electronic density on regular grids:      -1129.0000000000        0.0000000000
  Core density on regular grids:             1128.9999999991       -0.0000000009
  Total charge density on r-space grids:       -0.0000000009
  Total charge density g-space grids:          -0.0000000009

  Overlap energy of the core charge distribution:               0.00000000063502
  Self energy of the core charge distribution:              -7578.04547268558235
  Core Hamiltonian energy:                                   1708.74723514501625
  Hartree energy:                                            2616.44033290878451
  Exchange-correlation energy:                               -535.57920464299468
  Dispersion energy:                                           -1.19953335819890
  Electronic entropic energy:                                  -0.00211858880128
  Fermi energy:                                                -0.10317533183188

  Total energy:                                             -3789.63876122173770

   Calculate PDOS at iteration step                                  1
  Reached convergence in            1  iterations 

   Compute         1202    additional unoccupied KS orbitals

              ---- PDOS: start iteration on the KS states --- 
 Writing PDOS 1_1 to pes_h_cluster-dosfile-ALPHA_k1-1.pdos
 Writing PDOS 1_1 to pes_h_cluster-dosfile-ALPHA_k2-1.pdos
 Writing PDOS 1_1 to pes_h_cluster-dosfile-ALPHA_k3-1.pdos

   Calculate PDOS at iteration step                                  1
  Reached convergence in            1  iterations 

   Compute         1203    additional unoccupied KS orbitals

              ---- PDOS: start iteration on the KS states --- 
 Writing PDOS 1_1 to pes_h_cluster-dosfile-BETA_k1-1.pdos
 Writing PDOS 1_1 to pes_h_cluster-dosfile-BETA_k2-1.pdos
 Writing PDOS 1_1 to pes_h_cluster-dosfile-BETA_k3-1.pdos

  Integrated absolute spin density  :                               0.0068302139
  WARNING: S**2 computation does not yet treat fractional occupied orbitals

 ENERGY| Total FORCE_EVAL ( QS ) energy (a.u.):            -3789.638744517190844


 MD_ENERGIES| Initialization proceeding


 ******************************** GO CP2K GO! **********************************
 INITIAL POTENTIAL ENERGY[hartree]     =                     -0.378963874452E+04
 INITIAL VOLUME[bohr^3]                =                      0.933765637762E+05
 INITIAL CELL LNTHS[bohr]   =      0.6007439E+02   0.5603038E+02   0.2774118E+02
 INITIAL CELL ANGLS[deg]    =      0.9000000E+02   0.9000000E+02   0.9000000E+02
 ******************************** GO CP2K GO! **********************************

 Spin 1

 Number of electrons:                                                        565
 Number of occupied orbitals:                                                573
 Number of molecular orbitals:                                              1065

 Spin 2

 Number of electrons:                                                        564
 Number of occupied orbitals:                                                573
 Number of molecular orbitals:                                              1064

 Number of orbital functions:                                               2267
 Number of independent orbital functions:                                   2267

 Extrapolation method: ASPC


 SCF WAVEFUNCTION OPTIMIZATION

  Step     Update method      Time    Convergence         Total energy    Change
  ------------------------------------------------------------------------------
     1 Broy./Diag. 0.10E+00    7.5     0.29268467     -3789.2531255525 -3.79E+03
     2 Broy./Diag. 0.10E+00    9.5     0.00989590     -3789.1500587388  1.03E-01
     3 Broy./Diag. 0.10E+00    9.4     0.03079805     -3789.2774454951 -1.27E-01
     4 Broy./Diag. 0.10E+00    9.7     0.01752191     -3789.6451396419 -3.68E-01
     5 Broy./Diag. 0.10E+00    9.8     0.00758354     -3789.8173857197 -1.72E-01
     6 Broy./Diag. 0.10E+00    9.6     0.00667684     -3789.7513714115  6.60E-02
     7 Broy./Diag. 0.10E+00    9.6     0.00292723     -3789.6728158847  7.86E-02
     8 Broy./Diag. 0.10E+00   10.1     0.00200567     -3789.5988245386  7.40E-02
     9 Broy./Diag. 0.10E+00   10.1     0.00364647     -3789.5420530433  5.68E-02
    10 Broy./Diag. 0.10E+00    9.9     0.00050752     -3789.5552060004 -1.32E-02
    11 Broy./Diag. 0.10E+00   10.1     0.00092480     -3789.5856659707 -3.05E-02
    12 Broy./Diag. 0.10E+00   10.1     0.00033026     -3789.6390967673 -5.34E-02
    13 Broy./Diag. 0.10E+00    9.9     0.00055501     -3789.6468463015 -7.75E-03
    14 Broy./Diag. 0.10E+00    9.8     0.00013626     -3789.6419836913  4.86E-03
    15 Broy./Diag. 0.10E+00    9.9     0.00017155     -3789.6382608973  3.72E-03
    16 Broy./Diag. 0.10E+00   10.0     0.00028066     -3789.6317272100  6.53E-03
    17 Broy./Diag. 0.10E+00    9.9     0.00019031     -3789.6285917525  3.14E-03
    18 Broy./Diag. 0.10E+00   10.0     0.00008732     -3789.6322159006 -3.62E-03
    19 Broy./Diag. 0.10E+00   10.0     0.00012337     -3789.6374578383 -5.24E-03
    20 Broy./Diag. 0.10E+00    9.9     0.00007887     -3789.6371027343  3.55E-04
    21 Broy./Diag. 0.10E+00    9.9     0.00019124     -3789.6358807830  1.22E-03
    22 Broy./Diag. 0.10E+00   10.1     0.00004319     -3789.6362840046 -4.03E-04
    23 Broy./Diag. 0.10E+00    9.8     0.00008723     -3789.6369001430 -6.16E-04
    24 Broy./Diag. 0.10E+00    9.9     0.00004188     -3789.6368627349  3.74E-05
    25 Broy./Diag. 0.10E+00   10.1     0.00005440     -3789.6361055628  7.57E-04
    26 Broy./Diag. 0.10E+00   10.1     0.00002999     -3789.6356511058  4.54E-04
    27 Broy./Diag. 0.10E+00    9.6     0.00013303     -3789.6356513900 -2.84E-07
    28 Broy./Diag. 0.10E+00    9.9     0.00002876     -3789.6357325081 -8.11E-05
    29 Broy./Diag. 0.10E+00   10.1     0.00004326     -3789.6361103518 -3.78E-04
    30 Broy./Diag. 0.10E+00   10.0     0.00002984     -3789.6367698128 -6.59E-04
    31 Broy./Diag. 0.10E+00    9.9     0.00003385     -3789.6370538363 -2.84E-04
    32 Broy./Diag. 0.10E+00   10.1     0.00005703     -3789.6367518473  3.02E-04
    33 Broy./Diag. 0.10E+00    9.9     0.00002927     -3789.6362965519  4.55E-04
    34 Broy./Diag. 0.10E+00    9.7     0.00002205     -3789.6361202013  1.76E-04
    35 Broy./Diag. 0.10E+00    9.9     0.00002358     -3789.6361020065  1.82E-05
    36 Broy./Diag. 0.10E+00    9.9     0.00000984     -3789.6362043750 -1.02E-04
    37 Broy./Diag. 0.10E+00   10.0     0.00003506     -3789.6362447278 -4.04E-05
    38 Broy./Diag. 0.10E+00   10.0     0.00001868     -3789.6362944680 -4.97E-05
    39 Broy./Diag. 0.10E+00    9.9     0.00002503     -3789.6363334466 -3.90E-05
    40 Broy./Diag. 0.10E+00    9.9     0.00000241     -3789.6362840139  4.94E-05
    41 Broy./Diag. 0.10E+00   10.0     0.00000625     -3789.6361923141  9.17E-05
    42 Broy./Diag. 0.10E+00    9.9     0.00000175     -3789.6361822071  1.01E-05
    43 Broy./Diag. 0.10E+00    9.7     0.00000456     -3789.6361874795 -5.27E-06
    44 Broy./Diag. 0.10E+00   10.0     0.00000887     -3789.6361826685  4.81E-06
    45 Broy./Diag. 0.10E+00   10.3     0.00001082     -3789.6361808838  1.78E-06
    46 Broy./Diag. 0.10E+00   10.1     0.00000702     -3789.6362201535 -3.93E-05
    47 Broy./Diag. 0.10E+00    9.8     0.00001605     -3789.6362591229 -3.90E-05
    48 Broy./Diag. 0.10E+00   10.0     0.00000773     -3789.6362400767  1.90E-05
    49 Broy./Diag. 0.10E+00   10.3     0.00001535     -3789.6361977910  4.23E-05
    50 Broy./Diag. 0.10E+00   10.3     0.00000245     -3789.6361860183  1.18E-05
    51 Broy./Diag. 0.10E+00   10.0     0.00000187     -3789.6361953275 -9.31E-06
    52 Broy./Diag. 0.10E+00   10.1     0.00000083     -3789.6362129105 -1.76E-05

  *** SCF run converged in    52 steps ***


  Electronic density on regular grids:      -1129.0000000000        0.0000000000
  Core density on regular grids:             1128.9999999991       -0.0000000009
  Total charge density on r-space grids:       -0.0000000009
  Total charge density g-space grids:          -0.0000000009

  Overlap energy of the core charge distribution:               0.00000000054175
  Self energy of the core charge distribution:              -7578.04547268558235
  Core Hamiltonian energy:                                   1708.73192803757911
  Hartree energy:                                            2616.45188092495300
  Exchange-correlation energy:                               -535.57295900627491
  Dispersion energy:                                           -1.19949553373824
  Electronic entropic energy:                                  -0.00209464449843
  Fermi energy:                                                -0.10277828491848

  Total energy:                                             -3789.63621291050231

   Calculate PDOS at iteration step                                  2
  Reached convergence in            1  iterations 

   Compute         1202    additional unoccupied KS orbitals

              ---- PDOS: start iteration on the KS states --- 
 Writing PDOS 1_2 to pes_h_cluster-dosfile-ALPHA_k1-1.pdos
 Writing PDOS 1_2 to pes_h_cluster-dosfile-ALPHA_k2-1.pdos
 Writing PDOS 1_2 to pes_h_cluster-dosfile-ALPHA_k3-1.pdos

   Calculate PDOS at iteration step                                  2
  Reached convergence in            1  iterations 

   Compute         1203    additional unoccupied KS orbitals

              ---- PDOS: start iteration on the KS states --- 
 Writing PDOS 1_2 to pes_h_cluster-dosfile-BETA_k1-1.pdos
 Writing PDOS 1_2 to pes_h_cluster-dosfile-BETA_k2-1.pdos
 Writing PDOS 1_2 to pes_h_cluster-dosfile-BETA_k3-1.pdos

  Integrated absolute spin density  :                               0.0049927369
  WARNING: S**2 computation does not yet treat fractional occupied orbitals

 ENERGY| Total FORCE_EVAL ( QS ) energy (a.u.):            -3789.636205554778826


 *******************************************************************************
 ENSEMBLE TYPE                =                                          REFTRAJ
 STEP NUMBER                  =                                                2
 TIME [fs]                    =                                         0.000000
 CONSERVED QUANTITY [hartree] =                               0.000000000000E+00

                                              INSTANTANEOUS             AVERAGES
 CPU TIME [s]                 =                      533.76               533.76
 ENERGY DRIFT PER ATOM [K]    =          0.000000000000E+00   0.000000000000E+00
 POTENTIAL ENERGY[hartree]    =         -0.378963620555E+04  -0.378963620555E+04
 *******************************************************************************


 Spin 1

 Number of electrons:                                                        565
 Number of occupied orbitals:                                                573
 Number of molecular orbitals:                                              1065

 Spin 2

 Number of electrons:                                                        564
 Number of occupied orbitals:                                                573
 Number of molecular orbitals:                                              1064

 Number of orbital functions:                                               2267
 Number of independent orbital functions:                                   2267

 Extrapolation method: ASPC


 SCF WAVEFUNCTION OPTIMIZATION

  Step     Update method      Time    Convergence         Total energy    Change
  ------------------------------------------------------------------------------
     1 Broy./Diag. 0.10E+00    7.5     0.23375408     -3788.8503508918 -3.79E+03
     2 Broy./Diag. 0.10E+00    9.7     0.02059138     -3790.2298100650 -1.38E+00
     3 Broy./Diag. 0.10E+00    9.7     0.40776312     -3790.0785251164  1.51E-01
     4 Broy./Diag. 0.10E+00    9.4     0.02168814     -3789.7044506301  3.74E-01
     5 Broy./Diag. 0.10E+00    9.8     0.00816347     -3789.8215276609 -1.17E-01
     6 Broy./Diag. 0.10E+00    9.8     0.09367106     -3789.7745987328  4.69E-02
     7 Broy./Diag. 0.10E+00    9.5     0.09607011     -3789.8674294902 -9.28E-02
     8 Broy./Diag. 0.10E+00    9.9     0.00933966     -3789.8976107248 -3.02E-02
     9 Broy./Diag. 0.10E+00   10.6     0.04839785     -3789.7054174425  1.92E-01
    10 Broy./Diag. 0.10E+00    9.9     0.07741878     -3789.4671203379  2.38E-01
    11 Broy./Diag. 0.10E+00   10.0     0.12856764     -3789.3723658679  9.48E-02
    12 Broy./Diag. 0.10E+00    9.9     0.08032564     -3789.7235859175 -3.51E-01
    13 Broy./Diag. 0.10E+00    9.9     0.04197542     -3789.7237792146 -1.93E-04
    14 Broy./Diag. 0.10E+00    9.9     0.02894133     -3789.6616075871  6.22E-02
    15 Broy./Diag. 0.10E+00    9.9     0.01121484     -3789.7101339737 -4.85E-02
    16 Broy./Diag. 0.10E+00    9.9     0.02692461     -3789.6831871945  2.69E-02
    17 Broy./Diag. 0.10E+00    9.7     0.01635213     -3789.5753727281  1.08E-01
    18 Broy./Diag. 0.10E+00    9.9     0.00777782     -3789.5879951729 -1.26E-02
    19 Broy./Diag. 0.10E+00   10.1     0.00162917     -3789.5633335763  2.47E-02
    20 Broy./Diag. 0.10E+00    9.9     0.00184714     -3789.5713375796 -8.00E-03
    21 Broy./Diag. 0.10E+00    9.8     0.00129764     -3789.5881361359 -1.68E-02
    22 Broy./Diag. 0.10E+00   10.2     0.00029230     -3789.6189250950 -3.08E-02
    23 Broy./Diag. 0.10E+00   10.2     0.00057595     -3789.6215222056 -2.60E-03
    24 Broy./Diag. 0.10E+00    9.8     0.00019112     -3789.6162846014  5.24E-03
    25 Broy./Diag. 0.10E+00    9.9     0.00015709     -3789.6108748927  5.41E-03
    26 Broy./Diag. 0.10E+00    9.7     0.00017122     -3789.6060972189  4.78E-03
    27 Broy./Diag. 0.10E+00    9.8     0.00011630     -3789.6039705667  2.13E-03
    28 Broy./Diag. 0.10E+00    9.9     0.00010559     -3789.6082785217 -4.31E-03
    29 Broy./Diag. 0.10E+00   10.1     0.00005851     -3789.6110384471 -2.76E-03
    30 Broy./Diag. 0.10E+00   10.0     0.00005960     -3789.6101745723  8.64E-04
    31 Broy./Diag. 0.10E+00    9.8     0.00010856     -3789.6086734688  1.50E-03
    32 Broy./Diag. 0.10E+00    9.8     0.00003038     -3789.6080108166  6.63E-04
    33 Broy./Diag. 0.10E+00    9.9     0.00008516     -3789.6087301258 -7.19E-04
    34 Broy./Diag. 0.10E+00    9.7     0.00004246     -3789.6105634057 -1.83E-03
    35 Broy./Diag. 0.10E+00    9.8     0.00004285     -3789.6111552857 -5.92E-04
    36 Broy./Diag. 0.10E+00   10.2     0.00004656     -3789.6109006856  2.55E-04
    37 Broy./Diag. 0.10E+00   10.0     0.00003347     -3789.6102994557  6.01E-04
    38 Broy./Diag. 0.10E+00    9.8     0.00004611     -3789.6097535366  5.46E-04
    39 Broy./Diag. 0.10E+00   10.1     0.00001064     -3789.6092606452  4.93E-04
    40 Broy./Diag. 0.10E+00   10.1     0.00001494     -3789.6097679619 -5.07E-04
    41 Broy./Diag. 0.10E+00    9.9     0.00000574     -3789.6103073056 -5.39E-04
    42 Broy./Diag. 0.10E+00    9.9     0.00000553     -3789.6105236064 -2.16E-04
    43 Broy./Diag. 0.10E+00   10.1     0.00001530     -3789.6105813670 -5.78E-05
    44 Broy./Diag. 0.10E+00    9.9     0.00000397     -3789.6103278830  2.53E-04
    45 Broy./Diag. 0.10E+00    9.8     0.00000881     -3789.6101616410  1.66E-04
    46 Broy./Diag. 0.10E+00    9.9     0.00000686     -3789.6101838961 -2.23E-05
    47 Broy./Diag. 0.10E+00   10.2     0.00000917     -3789.6102638813 -8.00E-05
    48 Broy./Diag. 0.10E+00   10.2     0.00000530     -3789.6103509954 -8.71E-05
    49 Broy./Diag. 0.10E+00   10.0     0.00000671     -3789.6103734697 -2.25E-05
    50 Broy./Diag. 0.10E+00   10.2     0.00000662     -3789.6103200286  5.34E-05
    51 Broy./Diag. 0.10E+00   10.1     0.00000496     -3789.6102715253  4.85E-05
    52 Broy./Diag. 0.10E+00   10.2     0.00000106     -3789.6102386425  3.29E-05
    53 Broy./Diag. 0.10E+00    9.9     0.00000068     -3789.6102326182  6.02E-06

  *** SCF run converged in    53 steps ***


  Electronic density on regular grids:      -1129.0000000000       -0.0000000000
  Core density on regular grids:             1128.9999999991       -0.0000000009
  Total charge density on r-space grids:       -0.0000000009
  Total charge density g-space grids:          -0.0000000009

  Overlap energy of the core charge distribution:               0.00000000050992
  Self energy of the core charge distribution:              -7578.04547268558235
  Core Hamiltonian energy:                                   1708.64416642449692
  Hartree energy:                                            2616.51727651263946
  Exchange-correlation energy:                               -535.52379494676666
  Dispersion energy:                                           -1.20026296106720
  Electronic entropic energy:                                  -0.00214496599152
  Fermi energy:                                                -0.10581716360314

  Total energy:                                             -3789.61023261815808

   Calculate PDOS at iteration step                                  3
  Reached convergence in            1  iterations 

   Compute         1202    additional unoccupied KS orbitals

              ---- PDOS: start iteration on the KS states --- 
 Writing PDOS 1_3 to pes_h_cluster-dosfile-ALPHA_k1-1.pdos
 Writing PDOS 1_3 to pes_h_cluster-dosfile-ALPHA_k2-1.pdos
 Writing PDOS 1_3 to pes_h_cluster-dosfile-ALPHA_k3-1.pdos

   Calculate PDOS at iteration step                                  3
  Reached convergence in            1  iterations 

   Compute         1203    additional unoccupied KS orbitals

              ---- PDOS: start iteration on the KS states --- 
 Writing PDOS 1_3 to pes_h_cluster-dosfile-BETA_k1-1.pdos
 Writing PDOS 1_3 to pes_h_cluster-dosfile-BETA_k2-1.pdos
 Writing PDOS 1_3 to pes_h_cluster-dosfile-BETA_k3-1.pdos

  Integrated absolute spin density  :                               0.0013644054
  WARNING: S**2 computation does not yet treat fractional occupied orbitals

 ENERGY| Total FORCE_EVAL ( QS ) energy (a.u.):            -3789.610244134988534


 *******************************************************************************
 ENSEMBLE TYPE                =                                          REFTRAJ
 STEP NUMBER                  =                                                3
 TIME [fs]                    =                                         0.000000
 CONSERVED QUANTITY [hartree] =                               0.000000000000E+00

                                              INSTANTANEOUS             AVERAGES
 CPU TIME [s]                 =                      543.40               538.58
 ENERGY DRIFT PER ATOM [K]    =          0.000000000000E+00   0.000000000000E+00
 POTENTIAL ENERGY[hartree]    =         -0.378961024413E+04  -0.378962322484E+04
 *******************************************************************************


 Spin 1

 Number of electrons:                                                        565
 Number of occupied orbitals:                                                573
 Number of molecular orbitals:                                              1065

 Spin 2

 Number of electrons:                                                        564
 Number of occupied orbitals:                                                573
 Number of molecular orbitals:                                              1064

 Number of orbital functions:                                               2267
 Number of independent orbital functions:                                   2267

 Extrapolation method: ASPC


 SCF WAVEFUNCTION OPTIMIZATION

  Step     Update method      Time    Convergence         Total energy    Change
  ------------------------------------------------------------------------------
     1 Broy./Diag. 0.10E+00    7.5     0.47526031     -3788.0960312466 -3.79E+03
     2 Broy./Diag. 0.10E+00    9.7     0.07672787     -3788.9777756581 -8.82E-01
     3 Broy./Diag. 0.10E+00    9.8     0.11210546     -3789.4772763259 -5.00E-01
     4 Broy./Diag. 0.10E+00    9.6     0.15007447     -3789.6818946812 -2.05E-01
     5 Broy./Diag. 0.10E+00    9.9     0.02882983     -3789.6970646626 -1.52E-02
     6 Broy./Diag. 0.10E+00    9.7     0.09461932     -3789.6766545249  2.04E-02
     7 Broy./Diag. 0.10E+00    9.7     0.08188459     -3789.7567429274 -8.01E-02
     8 Broy./Diag. 0.10E+00    9.8     0.01238517     -3789.7234248713  3.33E-02
     9 Broy./Diag. 0.10E+00    9.7     0.01590790     -3789.6273484174  9.61E-02
    10 Broy./Diag. 0.10E+00    9.8     0.01475448     -3789.4920513075  1.35E-01
    11 Broy./Diag. 0.10E+00    9.8     0.01265680     -3789.4691113416  2.29E-02
    12 Broy./Diag. 0.10E+00   10.0     0.01438799     -3789.5313239879 -6.22E-02
    13 Broy./Diag. 0.10E+00   10.0     0.00584335     -3789.6154059721 -8.41E-02
    14 Broy./Diag. 0.10E+00    9.8     0.00721225     -3789.6368036197 -2.14E-02
    15 Broy./Diag. 0.10E+00    9.9     0.00516146     -3789.6494592118 -1.27E-02
    16 Broy./Diag. 0.10E+00   10.1     0.00291544     -3789.6407884362  8.67E-03
    17 Broy./Diag. 0.10E+00    9.9     0.00373153     -3789.6257620033  1.50E-02
    18 Broy./Diag. 0.10E+00    9.9     0.00120215     -3789.6204990925  5.26E-03
    19 Broy./Diag. 0.10E+00   10.0     0.00083249     -3789.6267345610 -6.24E-03
    20 Broy./Diag. 0.10E+00    9.9     0.00114702     -3789.6299150874 -3.18E-03
    21 Broy./Diag. 0.10E+00    9.5     0.00064483     -3789.6380192809 -8.10E-03
    22 Broy./Diag. 0.10E+00   10.0     0.00035906     -3789.6411717510 -3.15E-03
    23 Broy./Diag. 0.10E+00    9.9     0.00057291     -3789.6422603067 -1.09E-03
    24 Broy./Diag. 0.10E+00   10.0     0.00025229     -3789.6435236211 -1.26E-03
    25 Broy./Diag. 0.10E+00   10.0     0.00027229     -3789.6434692443  5.44E-05
    26 Broy./Diag. 0.10E+00   10.2     0.00013106     -3789.6438240447 -3.55E-04
    27 Broy./Diag. 0.10E+00    9.9     0.00016609     -3789.6418506576  1.97E-03
    28 Broy./Diag. 0.10E+00    9.9     0.00006567     -3789.6395099425  2.34E-03
    29 Broy./Diag. 0.10E+00    9.9     0.00015259     -3789.6405954603 -1.09E-03
    30 Broy./Diag. 0.10E+00   10.0     0.00004428     -3789.6424981518 -1.90E-03
    31 Broy./Diag. 0.10E+00    9.7     0.00006688     -3789.6430337710 -5.36E-04
    32 Broy./Diag. 0.10E+00    9.7     0.00010428     -3789.6428016985  2.32E-04
    33 Broy./Diag. 0.10E+00   10.0     0.00004497     -3789.6419899550  8.12E-04
    34 Broy./Diag. 0.10E+00   10.0     0.00010702     -3789.6414612675  5.29E-04
    35 Broy./Diag. 0.10E+00    9.7     0.00001340     -3789.6416222767 -1.61E-04
    36 Broy./Diag. 0.10E+00   10.0     0.00004524     -3789.6420472796 -4.25E-04
    37 Broy./Diag. 0.10E+00    9.9     0.00004415     -3789.6430367015 -9.89E-04
    38 Broy./Diag. 0.10E+00    9.8     0.00006594     -3789.6432280541 -1.91E-04
    39 Broy./Diag. 0.10E+00    9.8     0.00002255     -3789.6430329042  1.95E-04
    40 Broy./Diag. 0.10E+00   10.1     0.00002193     -3789.6427128326  3.20E-04
    41 Broy./Diag. 0.10E+00    9.7     0.00002013     -3789.6424788321  2.34E-04
    42 Broy./Diag. 0.10E+00    9.7     0.00001027     -3789.6423906751  8.82E-05
    43 Broy./Diag. 0.10E+00    9.9     0.00000345     -3789.6425487348 -1.58E-04
    44 Broy./Diag. 0.10E+00   10.0     0.00000790     -3789.6425323831  1.64E-05
    45 Broy./Diag. 0.10E+00    9.7     0.00000556     -3789.6424367627  9.56E-05
    46 Broy./Diag. 0.10E+00   10.2     0.00000532     -3789.6423668973  6.99E-05
    47 Broy./Diag. 0.10E+00    9.9     0.00000441     -3789.6423233174  4.36E-05
    48 Broy./Diag. 0.10E+00    9.9     0.00004301     -3789.6423489200 -2.56E-05
    49 Broy./Diag. 0.10E+00    9.8     0.00001831     -3789.6424023902 -5.35E-05
    50 Broy./Diag. 0.10E+00    9.8     0.00001950     -3789.6424498614 -4.75E-05
    51 Broy./Diag. 0.10E+00    9.7     0.00001985     -3789.6424579637 -8.10E-06
    52 Broy./Diag. 0.10E+00    9.9     0.00000933     -3789.6424384590  1.95E-05
    53 Broy./Diag. 0.10E+00   10.0     0.00000505     -3789.6423996463  3.88E-05
    54 Broy./Diag. 0.10E+00    9.9     0.00001789     -3789.6423586270  4.10E-05
    55 Broy./Diag. 0.10E+00    9.9     0.00001364     -3789.6423530238  5.60E-06
    56 Broy./Diag. 0.10E+00   10.1     0.00001215     -3789.6423575748 -4.55E-06
    57 Broy./Diag. 0.10E+00    9.7     0.00000844     -3789.6423663542 -8.78E-06
    58 Broy./Diag. 0.10E+00    9.8     0.00000210     -3789.6423680668 -1.71E-06
    59 Broy./Diag. 0.10E+00    9.7     0.00000375     -3789.6423652266  2.84E-06
    60 Broy./Diag. 0.10E+00   10.0     0.00000222     -3789.6423623983  2.83E-06
    61 Broy./Diag. 0.10E+00   10.0     0.00000159     -3789.6423583351  4.06E-06
    62 Broy./Diag. 0.10E+00    9.9     0.00000130     -3789.6423496773  8.66E-06
    63 Broy./Diag. 0.10E+00   10.1     0.00000028     -3789.6423475862  2.09E-06

  *** SCF run converged in    63 steps ***


  Electronic density on regular grids:      -1129.0000000000       -0.0000000000
  Core density on regular grids:             1128.9999999991       -0.0000000009
  Total charge density on r-space grids:       -0.0000000009
  Total charge density g-space grids:          -0.0000000009

  Overlap energy of the core charge distribution:               0.00000006781655
  Self energy of the core charge distribution:              -7578.04547268558235
  Core Hamiltonian energy:                                   1708.85784287671345
  Hartree energy:                                            2616.36490499473348
  Exchange-correlation energy:                               -535.61779705284619
  Dispersion energy:                                           -1.19969620080402
  Electronic entropic energy:                                  -0.00212958660622
  Fermi energy:                                                -0.10311004050446

  Total energy:                                             -3789.64234758617295

   Calculate PDOS at iteration step                                  4
  Reached convergence in            1  iterations 

   Compute         1202    additional unoccupied KS orbitals

              ---- PDOS: start iteration on the KS states --- 
 Writing PDOS 1_4 to pes_h_cluster-dosfile-ALPHA_k1-1.pdos
 Writing PDOS 1_4 to pes_h_cluster-dosfile-ALPHA_k2-1.pdos
 Writing PDOS 1_4 to pes_h_cluster-dosfile-ALPHA_k3-1.pdos

   Calculate PDOS at iteration step                                  4
  Reached convergence in            1  iterations 

   Compute         1203    additional unoccupied KS orbitals

              ---- PDOS: start iteration on the KS states --- 
 Writing PDOS 1_4 to pes_h_cluster-dosfile-BETA_k1-1.pdos
 Writing PDOS 1_4 to pes_h_cluster-dosfile-BETA_k2-1.pdos
 Writing PDOS 1_4 to pes_h_cluster-dosfile-BETA_k3-1.pdos

  Integrated absolute spin density  :                               0.0051947449
  WARNING: S**2 computation does not yet treat fractional occupied orbitals

 ENERGY| Total FORCE_EVAL ( QS ) energy (a.u.):            -3789.642356521755573


 *******************************************************************************
 ENSEMBLE TYPE                =                                          REFTRAJ
 STEP NUMBER                  =                                                4
 TIME [fs]                    =                                         0.000000
 CONSERVED QUANTITY [hartree] =                               0.000000000000E+00

                                              INSTANTANEOUS             AVERAGES
 CPU TIME [s]                 =                      639.46               572.21
 ENERGY DRIFT PER ATOM [K]    =          0.000000000000E+00   0.000000000000E+00
 POTENTIAL ENERGY[hartree]    =         -0.378964235652E+04  -0.378962960207E+04
 *******************************************************************************


 Spin 1

 Number of electrons:                                                        565
 Number of occupied orbitals:                                                573
 Number of molecular orbitals:                                              1065

 Spin 2

 Number of electrons:                                                        564
 Number of occupied orbitals:                                                573
 Number of molecular orbitals:                                              1064

 Number of orbital functions:                                               2267
 Number of independent orbital functions:                                   2267

 Extrapolation method: ASPC


 SCF WAVEFUNCTION OPTIMIZATION

  Step     Update method      Time    Convergence         Total energy    Change
  ------------------------------------------------------------------------------
     1 Broy./Diag. 0.10E+00    7.7     0.68492686     -3787.9831799780 -3.79E+03
     2 Broy./Diag. 0.10E+00    9.4     0.04899024     -3790.6965353186 -2.71E+00
     3 Broy./Diag. 0.10E+00    9.6     0.20918407     -3790.8079055073 -1.11E-01
     4 Broy./Diag. 0.10E+00    9.8     0.14947019     -3791.3476502078 -5.40E-01
     5 Broy./Diag. 0.10E+00    9.7     0.06161255     -3791.1900314852  1.58E-01
     6 Broy./Diag. 0.10E+00    9.4     0.25690375     -3790.5694880384  6.21E-01
     7 Broy./Diag. 0.10E+00    9.8     0.01851256     -3789.4753749972  1.09E+00
     8 Broy./Diag. 0.10E+00    9.6     0.24042185     -3789.4322518590  4.31E-02
     9 Broy./Diag. 0.10E+00    9.7     0.09211588     -3789.6612279292 -2.29E-01
    10 Broy./Diag. 0.10E+00   10.1     0.04282347     -3789.7786542182 -1.17E-01
    11 Broy./Diag. 0.10E+00   10.0     0.11323951     -3789.7173219133  6.13E-02
    12 Broy./Diag. 0.10E+00   10.0     0.01909377     -3789.5722125595  1.45E-01
    13 Broy./Diag. 0.10E+00    9.8     0.03328004     -3789.5588878622  1.33E-02
    14 Broy./Diag. 0.10E+00    9.9     0.09752680     -3789.6556376417 -9.67E-02
    15 Broy./Diag. 0.10E+00    9.9     0.07931790     -3789.5770207232  7.86E-02
    16 Broy./Diag. 0.10E+00    9.7     0.05975152     -3789.7578883513 -1.81E-01
    17 Broy./Diag. 0.10E+00   10.2     0.01543677     -3789.6736218074  8.43E-02
    18 Broy./Diag. 0.10E+00    9.9     0.01448663     -3789.6828879401 -9.27E-03
    19 Broy./Diag. 0.10E+00    9.8     0.00357407     -3789.6155449946  6.73E-02
    20 Broy./Diag. 0.10E+00    9.9     0.01121880     -3789.6163866797 -8.42E-04
    21 Broy./Diag. 0.10E+00   10.1     0.00751724     -3789.6240422876 -7.66E-03
    22 Broy./Diag. 0.10E+00   10.0     0.00241279     -3789.6199676165  4.07E-03
    23 Broy./Diag. 0.10E+00   10.1     0.00455172     -3789.6104430493  9.52E-03
    24 Broy./Diag. 0.10E+00   10.3     0.00285559     -3789.6239129155 -1.35E-02
    25 Broy./Diag. 0.10E+00    9.9     0.00431373     -3789.6241421889 -2.29E-04
    26 Broy./Diag. 0.10E+00    9.7     0.00176920     -3789.6160481237  8.09E-03
    27 Broy./Diag. 0.10E+00   10.0     0.00158238     -3789.6281930945 -1.21E-02
    28 Broy./Diag. 0.10E+00    9.9     0.00077082     -3789.6220726627  6.12E-03
    29 Broy./Diag. 0.10E+00    9.8     0.00052645     -3789.6184363325  3.64E-03
    30 Broy./Diag. 0.10E+00    9.8     0.00041469     -3789.6174775051  9.59E-04
    31 Broy./Diag. 0.10E+00   10.2     0.00030129     -3789.6218737268 -4.40E-03
    32 Broy./Diag. 0.10E+00   10.1     0.00062745     -3789.6212334559  6.40E-04
    33 Broy./Diag. 0.10E+00   10.0     0.00044139     -3789.6159383527  5.30E-03
    34 Broy./Diag. 0.10E+00    9.6     0.00010540     -3789.6134165569  2.52E-03
    35 Broy./Diag. 0.10E+00   10.1     0.00016815     -3789.6143394996 -9.23E-04
    36 Broy./Diag. 0.10E+00    9.8     0.00010280     -3789.6162077602 -1.87E-03
    37 Broy./Diag. 0.10E+00   10.0     0.00011274     -3789.6159636695  2.44E-04
    38 Broy./Diag. 0.10E+00   10.2     0.00005157     -3789.6156989865  2.65E-04
    39 Broy./Diag. 0.10E+00   10.1     0.00004478     -3789.6152875143  4.11E-04
    40 Broy./Diag. 0.10E+00    9.8     0.00006556     -3789.6147385268  5.49E-04
    41 Broy./Diag. 0.10E+00   10.0     0.00003004     -3789.6148605601 -1.22E-04
    42 Broy./Diag. 0.10E+00   10.1     0.00004058     -3789.6151097531 -2.49E-04
    43 Broy./Diag. 0.10E+00   10.1     0.00002790     -3789.6156155285 -5.06E-04
    44 Broy./Diag. 0.10E+00    9.8     0.00003019     -3789.6155960559  1.95E-05
    45 Broy./Diag. 0.10E+00   10.2     0.00000858     -3789.6153753355  2.21E-04
    46 Broy./Diag. 0.10E+00    9.9     0.00003523     -3789.6151117340  2.64E-04
    47 Broy./Diag. 0.10E+00    9.8     0.00002361     -3789.6148219930  2.90E-04
    48 Broy./Diag. 0.10E+00    9.9     0.00001010     -3789.6147727393  4.93E-05
    49 Broy./Diag. 0.10E+00   10.1     0.00001320     -3789.6149087269 -1.36E-04
    50 Broy./Diag. 0.10E+00   10.0     0.00000976     -3789.6148859457  2.28E-05
    51 Broy./Diag. 0.10E+00    9.9     0.00000847     -3789.6148424131  4.35E-05
    52 Broy./Diag. 0.10E+00   10.7     0.00002021     -3789.6149204806 -7.81E-05
    53 Broy./Diag. 0.10E+00    9.9     0.00002337     -3789.6149488892 -2.84E-05
    54 Broy./Diag. 0.10E+00   10.0     0.00001197     -3789.6149564524 -7.56E-06
    55 Broy./Diag. 0.10E+00   10.2     0.00000933     -3789.6149634115 -6.96E-06
    56 Broy./Diag. 0.10E+00   10.1     0.00000353     -3789.6149407218  2.27E-05
    57 Broy./Diag. 0.10E+00    9.8     0.00000577     -3789.6149485297 -7.81E-06
    58 Broy./Diag. 0.10E+00   10.0     0.00000240     -3789.6149888485 -4.03E-05
    59 Broy./Diag. 0.10E+00   10.3     0.00000278     -3789.6149902681 -1.42E-06
    60 Broy./Diag. 0.10E+00   10.0     0.00000509     -3789.6149894159  8.52E-07
    61 Broy./Diag. 0.10E+00   10.0     0.00000156     -3789.6149937564 -4.34E-06
    62 Broy./Diag. 0.10E+00   10.0     0.00000086     -3789.6149864493  7.31E-06

  *** SCF run converged in    62 steps ***


  Electronic density on regular grids:      -1129.0000000000       -0.0000000000
  Core density on regular grids:             1128.9999999991       -0.0000000009
  Total charge density on r-space grids:       -0.0000000009
  Total charge density g-space grids:          -0.0000000009

  Overlap energy of the core charge distribution:               0.00000000051018
  Self energy of the core charge distribution:              -7578.04547268558235
  Core Hamiltonian energy:                                   1708.66825001932762
  Hartree energy:                                            2616.50086554292056
  Exchange-correlation energy:                               -535.53651160302798
  Dispersion energy:                                           -1.19983043865750
  Electronic entropic energy:                                  -0.00228728291104
  Fermi energy:                                                -0.10458552919130

  Total energy:                                             -3789.61498644929725

   Calculate PDOS at iteration step                                  5
  Reached convergence in            1  iterations 

   Compute         1202    additional unoccupied KS orbitals

              ---- PDOS: start iteration on the KS states --- 
 Writing PDOS 1_5 to pes_h_cluster-dosfile-ALPHA_k1-1.pdos
 Writing PDOS 1_5 to pes_h_cluster-dosfile-ALPHA_k2-1.pdos
 Writing PDOS 1_5 to pes_h_cluster-dosfile-ALPHA_k3-1.pdos

   Calculate PDOS at iteration step                                  5
  Reached convergence in            1  iterations 

   Compute         1203    additional unoccupied KS orbitals

              ---- PDOS: start iteration on the KS states --- 
 Writing PDOS 1_5 to pes_h_cluster-dosfile-BETA_k1-1.pdos
 Writing PDOS 1_5 to pes_h_cluster-dosfile-BETA_k2-1.pdos
 Writing PDOS 1_5 to pes_h_cluster-dosfile-BETA_k3-1.pdos

  Integrated absolute spin density  :                               0.0033985368
  WARNING: S**2 computation does not yet treat fractional occupied orbitals

 ENERGY| Total FORCE_EVAL ( QS ) energy (a.u.):            -3789.614992641718345


 *******************************************************************************
 ENSEMBLE TYPE                =                                          REFTRAJ
 STEP NUMBER                  =                                                5
 TIME [fs]                    =                                         0.000000
 CONSERVED QUANTITY [hartree] =                               0.000000000000E+00

                                              INSTANTANEOUS             AVERAGES
 CPU TIME [s]                 =                      633.59               587.55
 ENERGY DRIFT PER ATOM [K]    =          0.000000000000E+00   0.000000000000E+00
 POTENTIAL ENERGY[hartree]    =         -0.378961499264E+04  -0.378962594971E+04
 *******************************************************************************


 Spin 1

 Number of electrons:                                                        565
 Number of occupied orbitals:                                                573
 Number of molecular orbitals:                                              1065

 Spin 2

 Number of electrons:                                                        564
 Number of occupied orbitals:                                                573
 Number of molecular orbitals:                                              1064

 Number of orbital functions:                                               2267
 Number of independent orbital functions:                                   2267

 Extrapolation method: ASPC


 SCF WAVEFUNCTION OPTIMIZATION

  Step     Update method      Time    Convergence         Total energy    Change
  ------------------------------------------------------------------------------
     1 Broy./Diag. 0.10E+00    7.6     0.42798843     -3786.7891486424 -3.79E+03
     2 Broy./Diag. 0.10E+00    9.8     0.29576135     -3786.3725450162  4.17E-01
     3 Broy./Diag. 0.10E+00    9.7     0.22549172     -3790.1531074009 -3.78E+00
     4 Broy./Diag. 0.10E+00    9.5     0.06143068     -3791.4398846699 -1.29E+00
     5 Broy./Diag. 0.10E+00    9.6     0.30429044     -3790.6567980064  7.83E-01
     6 Broy./Diag. 0.10E+00    9.7     0.02513921     -3790.2218954495  4.35E-01
     7 Broy./Diag. 0.10E+00    9.7     0.08212741     -3789.9389063178  2.83E-01
     8 Broy./Diag. 0.10E+00   10.0     0.01873727     -3789.6761196918  2.63E-01
     9 Broy./Diag. 0.10E+00   10.0     0.07174098     -3789.6169813128  5.91E-02
    10 Broy./Diag. 0.10E+00    9.8     0.04863813     -3789.5471997114  6.98E-02
    11 Broy./Diag. 0.10E+00   10.3     0.03101535     -3789.5253435275  2.19E-02
    12 Broy./Diag. 0.10E+00    9.9     0.03447712     -3789.6345550385 -1.09E-01
    13 Broy./Diag. 0.10E+00    9.8     0.02420069     -3789.6469293608 -1.24E-02
    14 Broy./Diag. 0.10E+00    9.8     0.00659183     -3789.6475438956 -6.15E-04
    15 Broy./Diag. 0.10E+00   10.1     0.00365031     -3789.6284999467  1.90E-02
    16 Broy./Diag. 0.10E+00    9.9     0.01749501     -3789.6199820310  8.52E-03
    17 Broy./Diag. 0.10E+00   10.0     0.01035555     -3789.6295964310 -9.61E-03
    18 Broy./Diag. 0.10E+00   10.2     0.01100589     -3789.6313764502 -1.78E-03
    19 Broy./Diag. 0.10E+00    9.8     0.00652807     -3789.6249487727  6.43E-03
    20 Broy./Diag. 0.10E+00   10.0     0.00197684     -3789.6180206558  6.93E-03
    21 Broy./Diag. 0.10E+00   10.1     0.00132717     -3789.6119809287  6.04E-03
    22 Broy./Diag. 0.10E+00   10.0     0.00268325     -3789.6180558614 -6.07E-03
    23 Broy./Diag. 0.10E+00   10.0     0.00139111     -3789.6374250338 -1.94E-02
    24 Broy./Diag. 0.10E+00    9.9     0.00137931     -3789.6691813521 -3.18E-02
    25 Broy./Diag. 0.10E+00   10.1     0.00051177     -3789.6653736692  3.81E-03
    26 Broy./Diag. 0.10E+00   10.0     0.00020577     -3789.6476856767  1.77E-02
    27 Broy./Diag. 0.10E+00    9.9     0.00028886     -3789.6440773881  3.61E-03
    28 Broy./Diag. 0.10E+00   10.3     0.00014685     -3789.6508435754 -6.77E-03
    29 Broy./Diag. 0.10E+00   10.2     0.00058181     -3789.6509394401 -9.59E-05
    30 Broy./Diag. 0.10E+00    9.7     0.00007336     -3789.6491183510  1.82E-03
    31 Broy./Diag. 0.10E+00   10.0     0.00018556     -3789.6461236717  2.99E-03
    32 Broy./Diag. 0.10E+00   10.2     0.00006408     -3789.6426552293  3.47E-03
    33 Broy./Diag. 0.10E+00   10.2     0.00012389     -3789.6433470890 -6.92E-04
    34 Broy./Diag. 0.10E+00    9.8     0.00005470     -3789.6457831324 -2.44E-03
    35 Broy./Diag. 0.10E+00   10.1     0.00007406     -3789.6472680288 -1.48E-03
    36 Broy./Diag. 0.10E+00    9.8     0.00011527     -3789.6483703252 -1.10E-03
    37 Broy./Diag. 0.10E+00   10.0     0.00002235     -3789.6474345796  9.36E-04
    38 Broy./Diag. 0.10E+00   10.0     0.00007305     -3789.6462671309  1.17E-03
    39 Broy./Diag. 0.10E+00    9.9     0.00001350     -3789.6448958371  1.37E-03
    40 Broy./Diag. 0.10E+00    9.9     0.00003529     -3789.6449162357 -2.04E-05
    41 Broy./Diag. 0.10E+00    9.9     0.00001104     -3789.6455156328 -5.99E-04
    42 Broy./Diag. 0.10E+00   10.1     0.00001079     -3789.6458648724 -3.49E-04
    43 Broy./Diag. 0.10E+00   10.0     0.00000888     -3789.6460619498 -1.97E-04
    44 Broy./Diag. 0.10E+00    9.8     0.00000329     -3789.6458848093  1.77E-04
    45 Broy./Diag. 0.10E+00   10.4     0.00002491     -3789.6456302672  2.55E-04
    46 Broy./Diag. 0.10E+00   10.1     0.00000846     -3789.6453777407  2.53E-04
    47 Broy./Diag. 0.10E+00    9.8     0.00000763     -3789.6454628004 -8.51E-05
    48 Broy./Diag. 0.10E+00    9.9     0.00000572     -3789.6457674808 -3.05E-04
[...]
 flops  571 x  192 x  208            150502809600     100.0%      0.0%      0.0%
 flops  576 x   96 x  208            151820697600     100.0%      0.0%      0.0%
 flops  576 x  192 x  169            164472422400     100.0%      0.0%      0.0%
 flops  576 x  192 x  195            189775872000     100.0%      0.0%      0.0%
 flops  559 x   72 x  208            193785426432     100.0%      0.0%      0.0%
 flops  564 x   72 x  208            195518748672     100.0%      0.0%      0.0%
 flops  559 x   73 x  208            196476890688     100.0%      0.0%      0.0%
 flops  564 x   73 x  208            198234286848     100.0%      0.0%      0.0%
 flops   13 x   13 x   72            203604783408       0.0%    100.0%      0.0%
 flops   13 x   13 x   73            206432627622       0.0%    100.0%      0.0%
 flops  572 x   96 x   96            208753459200     100.0%      0.0%      0.0%
 flops  572 x   72 x  169            214816402944     100.0%      0.0%      0.0%
 flops  572 x   73 x  169            217799964096     100.0%      0.0%      0.0%
 flops  544 x   96 x  192            220594176000     100.0%      0.0%      0.0%
 flops  559 x   96 x  192            226676736000     100.0%      0.0%      0.0%
 flops  564 x   96 x  192            228704256000     100.0%      0.0%      0.0%
 flops  571 x   96 x  192            231542784000     100.0%      0.0%      0.0%
 flops  572 x   72 x  195            247865080320     100.0%      0.0%      0.0%
 flops  572 x   73 x  195            251307650880     100.0%      0.0%      0.0%
 flops   26 x   13 x   72            291360472416       0.0%    100.0%      0.0%
 flops   13 x   26 x   72            291553554240       0.0%    100.0%      0.0%
 flops   26 x   13 x   73            295407145644       0.0%    100.0%      0.0%
 flops   13 x   26 x   73            295602909160       0.0%    100.0%      0.0%
 flops  576 x  192 x  208            303641395200     100.0%      0.0%      0.0%
 flops   26 x   26 x   72            338279355648       0.0%    100.0%      0.0%
 flops   26 x   26 x   73            342977680032       0.0%    100.0%      0.0%
 flops  559 x   64 x  169            373216376832     100.0%      0.0%      0.0%
 flops  564 x   64 x  169            376554627072     100.0%      0.0%      0.0%
 flops  572 x   72 x  208            396584128512     100.0%      0.0%      0.0%
 flops  572 x   73 x  208            402092241408     100.0%      0.0%      0.0%
 flops  559 x   64 x  195            430634280960     100.0%      0.0%      0.0%
 flops  564 x   64 x  195            434486108160     100.0%      0.0%      0.0%
 flops  572 x   96 x  192            463896576000     100.0%      0.0%      0.0%
 flops  576 x   96 x  192            467140608000     100.0%      0.0%      0.0%
 flops  559 x  187 x  169            545245800528     100.0%      0.0%      0.0%
 flops  564 x  187 x  169            550122775488     100.0%      0.0%      0.0%
 flops  559 x  187 x  195            629129769840     100.0%      0.0%      0.0%
 flops  564 x  187 x  195            634757048640     100.0%      0.0%      0.0%
 flops  559 x   64 x  208            689014849536     100.0%      0.0%      0.0%
 flops  564 x   64 x  208            695177773056     100.0%      0.0%      0.0%
 flops   13 x   13 x   64            723928118784       0.0%    100.0%      0.0%
 flops  572 x   64 x  169            763791654912     100.0%      0.0%      0.0%
 flops  572 x   64 x  195            881298063360     100.0%      0.0%      0.0%
 flops  559 x  187 x  208           1006607631744     100.0%      0.0%      0.0%
 flops  564 x  187 x  208           1015611277824     100.0%      0.0%      0.0%
 flops   26 x   13 x   64           1035948346368       0.0%    100.0%      0.0%
 flops   13 x   26 x   64           1036634859520       0.0%    100.0%      0.0%
 flops  572 x  187 x  169           1115851870848     100.0%      0.0%      0.0%
 flops   26 x   26 x   64           1202771042304       0.0%    100.0%      0.0%
 flops  572 x  187 x  195           1287521389440     100.0%      0.0%      0.0%
 flops  572 x   64 x  208           1410076901376     100.0%      0.0%      0.0%
 flops  572 x  187 x  208           2060034223104     100.0%      0.0%      0.0%
 flops   13 x   32 x   13           2143304097792       0.0%    100.0%      0.0%
 flops  559 x   96 x  169           2519210543616     100.0%      0.0%      0.0%
 flops  564 x   96 x  169           2541743732736     100.0%      0.0%      0.0%
 flops  559 x  182 x  169           2653335179040     100.0%      0.0%      0.0%
 flops  564 x  182 x  169           2677068051840     100.0%      0.0%      0.0%
 flops  559 x   96 x  195           2906781396480     100.0%      0.0%      0.0%
 flops  564 x   96 x  195           2932781230080     100.0%      0.0%      0.0%
 flops  559 x  182 x  195           3061540591200     100.0%      0.0%      0.0%
 flops  564 x  182 x  195           3088924675200     100.0%      0.0%      0.0%
 flops   26 x   32 x   13           3134997612032       0.0%    100.0%      0.0%
 flops   13 x   32 x   26           3134997612032       0.0%    100.0%      0.0%
 flops  559 x  195 x  169           3411430944480     100.0%      0.0%      0.0%
 flops  564 x  195 x  169           3441944638080     100.0%      0.0%      0.0%
 flops   26 x   32 x   26           3551405045760       0.0%    100.0%      0.0%
 flops  559 x  195 x  195           3936266474400     100.0%      0.0%      0.0%
 flops  564 x  195 x  195           3971474582400     100.0%      0.0%      0.0%
 flops  559 x   96 x  208           4650850234368     100.0%      0.0%      0.0%
 flops  564 x   96 x  208           4692449968128     100.0%      0.0%      0.0%
 flops   13 x   13 x   96           4886514801792       0.0%    100.0%      0.0%
 flops  559 x  182 x  208           4898464945920     100.0%      0.0%      0.0%
 flops  564 x  182 x  208           4942279480320     100.0%      0.0%      0.0%
 flops  572 x   96 x  169           5155593670656     100.0%      0.0%      0.0%
 flops  572 x  182 x  169           5430081296640     100.0%      0.0%      0.0%
 flops  572 x   96 x  195           5948761927680     100.0%      0.0%      0.0%
 flops  572 x  182 x  195           6265478419200     100.0%      0.0%      0.0%
 flops  559 x  195 x  208           6298026359040     100.0%      0.0%      0.0%
 flops  564 x  195 x  208           6354359331840     100.0%      0.0%      0.0%
 flops  572 x  195 x  169           6981533095680     100.0%      0.0%      0.0%
 flops   26 x   13 x   96           6992651337984       0.0%    100.0%      0.0%
 flops   13 x   26 x   96           6997285301760       0.0%    100.0%      0.0%
 flops  572 x  195 x  195           8055615110400     100.0%      0.0%      0.0%
 flops   26 x   26 x   96           8118704535552       0.0%    100.0%      0.0%
 flops  572 x   96 x  208           9518019084288     100.0%      0.0%      0.0%
 flops  572 x  182 x  208          10024765470720     100.0%      0.0%      0.0%
 flops   13 x   26 x   13          11756315870208       0.0%    100.0%      0.0%
 flops   13 x   13 x   13          12596052718080       0.0%    100.0%      0.0%
 flops  572 x  195 x  208          12888984176640     100.0%      0.0%      0.0%
 flops   26 x   26 x   13          17195890315968       0.0%    100.0%      0.0%
 flops   13 x   26 x   26          17195890315968       0.0%    100.0%      0.0%
 flops   26 x   13 x   13          18424168195680       0.0%    100.0%      0.0%
 flops   13 x   13 x   26          18424168195680       0.0%    100.0%      0.0%
 flops   26 x   26 x   26          19479941994240       0.0%    100.0%      0.0%
 flops   26 x   13 x   26          20871366422400       0.0%    100.0%      0.0%
 flops total                       478.938007E+12      61.9%     38.1%      0.0%
 flops max/rank                     10.718996E+12      61.3%     38.7%      0.0%
 matmuls inhomo. stacks                   3835680     100.0%      0.0%      0.0%
 matmuls total                        13599403670       0.1%     99.9%      0.0%
 number of processed stacks              78133574      12.1%     87.9%      0.0%
 average stack size                                     1.0     197.9       0.0
 marketing flops                   520.522186E+12
 -------------------------------------------------------------------------------
 # multiplications                          34010
 max memory usage/rank               1.310114E+09
 # max total images/rank                        3
 # MPI messages exchanged                71829120
 # MPI messages filtered                        0
 MPI messages size (elements):
  total size                         2.878221E+12
  min size                           0.000000E+00
  max size                         127.296000E+03
  average size                      40.070398E+03
 MPI breakdown and total messages size (bytes):
             size <=      128             1089000                        0
       128 < size <=     8192                   0                        0
      8192 < size <=    32768               72600               1850356200
     32768 < size <=   131072            10637187            1144172239760
    131072 < size <=  4194304            60030333           21872021185784
   4194304 < size <= 16777216                   0                        0
  16777216 < size                               0                        0
 -------------------------------------------------------------------------------
 Warning: using a non-square number of MPI ranks might lead to poor performance.
          used ranks: 48
          suggested : 49 100
 -------------------------------------------------------------------------------

 MEMORY| Estimated peak process memory [MiB]                                1250

 -------------------------------------------------------------------------------
 -                                                                             -
 -                         MESSAGE PASSING PERFORMANCE                         -
 -                                                                             -
 -------------------------------------------------------------------------------

 ROUTINE             CALLS  TOT TIME [s]  AVE VOLUME [Bytes]  PERFORMANCE [MB/s]
 MP_Group                6         0.000
 MP_Bcast            13616         0.112             123510.            14969.27
 MP_Allreduce       422573      1181.130              10738.                3.84
 MP_Sync              8104         3.596
 MP_Alltoall        813782      9678.622            6575369.              552.86
 MP_SendRecv         10340        -0.105               2029.                0.00
 MP_ISendRecv      2206932         7.595             134016.            38941.97
 MP_Wait           6424434      1260.587
 MP_comm_split        8099        10.021
 MP_ISend          3574040        26.033             290476.            39878.66
 MP_IRecv          3574040         8.255             290337.           125696.80
 MP_Recv             14586         4.416             580352.             1916.74
 MP_Memory         3435736        12.956
 -------------------------------------------------------------------------------


 -------------------------------------------------------------------------------
 -                                                                             -
 -                           R E F E R E N C E S                               -
 -                                                                             -
 -------------------------------------------------------------------------------
 
 CP2K version 4.1, the CP2K developers group (2016).
 CP2K is freely available from https://www.cp2k.org/ .

 Schuett, Ole; Messmer, Peter; Hutter, Juerg; VandeVondele, Joost. 
 Electronic Structure Calculations on Graphics Processing Units, John Wiley & Sons, Ltd, 173-190 (2016). 
 GPU-Accelerated Sparse Matrix-Matrix Multiplication for Linear Scaling Density Functional Theory.
 http://dx.doi.org/10.1002/9781118670712.ch8


 Borstnik, U; VandeVondele, J; Weber, V; Hutter, J. 
 PARALLEL COMPUTING, 40 (5-6), 47-58 (2014). 
 Sparse matrix multiplication: The distributed block-compressed sparse
 row library.
 http://dx.doi.org/10.1016/j.parco.2014.03.012


 Hutter, J; Iannuzzi, M; Schiffmann, F; VandeVondele, J. 
 WILEY INTERDISCIPLINARY REVIEWS-COMPUTATIONAL MOLECULAR SCIENCE, 4 (1), 15-25 (2014). 
 CP2K: atomistic simulations of condensed matter systems.
 http://dx.doi.org/10.1002/wcms.1159


 Grimme, S; Ehrlich, S; Goerigk, L. 
 JOURNAL OF COMPUTATIONAL CHEMISTRY, 32, 1456 (2011). 
 Effect of the damping function in dispersion corrected density functional theory.
 http://dx.doi.org/10.1002/jcc.21759


 Grimme, S; Antony, J; Ehrlich, S; Krieg, H. 
 JOURNAL OF CHEMICAL PHYSICS, 132 (15), 154104 (2010). 
 A consistent and accurate ab initio parametrization of density
 functional dispersion correction (DFT-D) for the 94 elements H-Pu.
 http://dx.doi.org/10.1063/1.3382344


 VandeVondele, J; Hutter, J. 
 JOURNAL OF CHEMICAL PHYSICS, 127 (11), 114105 (2007). 
 Gaussian basis sets for accurate calculations on molecular systems in
 gas and condensed phases.
 http://dx.doi.org/10.1063/1.2770708


 Krack, M. 
 THEORETICAL CHEMISTRY ACCOUNTS, 114 (1-3), 145-152 (2005). 
 Pseudopotentials for H to Kr optimized for gradient-corrected
 exchange-correlation functionals.
 http://dx.doi.org/10.1007/s00214-005-0655-y


 VandeVondele, J; Krack, M; Mohamed, F; Parrinello, M; Chassaing, T;
 Hutter, J. COMPUTER PHYSICS COMMUNICATIONS, 167 (2), 103-128 (2005). 
 QUICKSTEP: Fast and accurate density functional calculations using a
 mixed Gaussian and plane waves approach.
 http://dx.doi.org/10.1016/j.cpc.2004.12.014


 Kolafa, J. 
 JOURNAL OF COMPUTATIONAL CHEMISTRY, 25 (3), 335-342 (2004). 
 Time-reversible always stable predictor-corrector method for molecular dynamics of polarizable molecules.
 http://dx.doi.org/10.1002/jcc.10385


 VandeVondele, J; Hutter, J. 
 JOURNAL OF CHEMICAL PHYSICS, 118 (10), 4365-4369 (2003). 
 An efficient orbital transformation method for electronic structure
 calculations.
 http://dx.doi.org/10.1063/1.1543154


 Hartwigsen, C; Goedecker, S; Hutter, J. 
 PHYSICAL REVIEW B, 58 (7), 3641-3662 (1998). 
 Relativistic separable dual-space Gaussian pseudopotentials from H to Rn.
 http://dx.doi.org/10.1103/PhysRevB.58.3641


 Lippert, G; Hutter, J; Parrinello, M. 
 MOLECULAR PHYSICS, 92 (3), 477-487 (1997). 
 A hybrid Gaussian and plane wave density functional scheme.
 http://dx.doi.org/10.1080/002689797170220


 Perdew, JP; Burke, K; Ernzerhof, M. 
 PHYSICAL REVIEW LETTERS, 77 (18), 3865-3868 (1996). 
 Generalized gradient approximation made simple.
 http://dx.doi.org/10.1103/PhysRevLett.77.3865


 Goedecker, S; Teter, M; Hutter, J. 
 PHYSICAL REVIEW B, 54 (3), 1703-1710 (1996). 
 Separable dual-space Gaussian pseudopotentials.
 http://dx.doi.org/10.1103/PhysRevB.54.1703


 -------------------------------------------------------------------------------
 -                                                                             -
 -                                T I M I N G                                  -
 -                                                                             -
 -------------------------------------------------------------------------------
 SUBROUTINE                       CALLS  ASD         SELF TIME        TOTAL TIME
                                MAXIMUM       AVERAGE  MAXIMUM  AVERAGE  MAXIMUM
 CP2K                                 1  1.0     0.05     0.35 38429.15 38429.21
 qs_mol_dyn_low                       1  2.0     0.00     0.05 38427.64 38427.65
 velocity_verlet                     55  3.0     0.03     0.13 38427.50 38427.51
 qs_forces                           55  4.0     0.01     0.01 38427.36 38427.38
 qs_energies                         55  5.0     0.00     0.00 38113.04 38113.08
 scf_env_do_scf                      55  6.0     0.01     0.01 37496.78 37504.20
 scf_env_do_scf_inner_loop         3858  7.0     0.20     2.60 37496.41 37503.83
 rebuild_ks_matrix                 3913  9.0     0.01     0.01 19123.48 19126.02
 qs_ks_build_kohn_sham_matrix      3913 10.0     0.42     0.54 19123.47 19126.01
 qs_ks_update_qs_env               3858  8.0     0.03     0.05 18839.68 18842.60
 pw_transfer                     160268 12.5     7.74    10.72 18340.54 18829.85
 fft_wrap_pw1pw2                 152442 13.5     1.35     1.99 18308.05 18800.08
 fft_wrap_pw1pw2_280              89834 14.5   377.62   467.99 17408.06 17958.14
 fft3d_ps                        152442 15.5  7468.37  8265.80 16251.09 16828.80
 qs_vxc_create                     3913 11.0     0.05     0.06 13560.90 13588.08
 xc_vxc_pw_create                  3913 12.0   122.98   141.91 13560.85 13588.03
 qs_scf_new_mos                    3858  8.0     0.07     0.10  9472.00  9475.14
 eigensolver_dbcsr                 7716  9.0     0.47     0.70  9141.54  9143.76
 mp_alltoall_z22v                152442 17.5  8027.29  8999.65  8027.29  8999.65
 cp_fm_syevd                       8099 10.1  1487.19  8365.56  8381.09  8389.96
 cp_fm_syevd_base                  8099 11.0  6869.27  8285.16  6869.27  8285.16
 xc_rho_set_and_dset_create        3913 13.0    55.63    61.77  6617.22  6975.04
 qs_rho_update_rho                 3913  8.0     0.03     0.04  5881.58  5893.14
 calculate_rho_elec                7826  9.0  1091.83  1446.70  5881.55  5893.11
 x_to_yz                          81953 17.0   454.64   548.33  4682.66  5054.29
 yz_to_x                          70489 16.0   298.32   372.39  4097.60  4817.73
 density_rs2pw                     7826 10.0     0.28     0.34  4451.46  4750.33
 sum_up_and_integrate              3913 11.0    12.36    16.34  4673.98  4676.69
 integrate_v_rspace                7826 12.0  1254.43  1668.10  4661.58  4665.56
 gspace_mixing                     3803  8.0    26.92    29.27  3308.15  3308.17
 potential_pw2rs                   7826 13.0     1.45     1.67  2856.38  2861.06
 rs_pw_transfer                   78370 12.5     1.02     1.44  2012.54  2303.04
 xc_functional_eval                3913 14.0     0.04     0.06  1792.80  2148.33
 pbe_lsd_eval                      3913 15.0  1792.75  2148.29  1792.75  2148.29
 broyden_mixing                    3803  9.0  1197.80  1427.02  1665.41  1675.40
 mp_alltoall_d11v                291340 12.7   886.73  1218.25   886.73  1218.25
 mp_waitany                      314140 14.5   838.81  1187.76   838.81  1187.76
 rs_distribute_matrix             15762 11.5    13.69    29.78   677.81  1001.28
 rs_pw_transfer_RS2PW_280          7881 12.0   187.71   225.32   537.11   965.51
 pw_scatter_p                     81953 16.0   838.53   954.20   838.53   954.20
 dbcsr_multiply_generic           34010 10.8     1.69     2.28   935.50   953.73
 pw_gather_p                      70489 15.0   825.18   936.17   825.18   936.17
 mp_waitall_1                   6110294 14.3   767.25   832.44   767.25   832.44
 -------------------------------------------------------------------------------

 The number of warnings for this run is : 1
 
 -------------------------------------------------------------------------------
  **** **** ******  **  PROGRAM ENDED AT                 2017-06-09 12:08:05.100
 ***** ** ***  *** **   PROGRAM RAN ON                                      c627
 **    ****   ******    PROGRAM RAN BY                                  jagermar
 ***** **    ** ** **   PROGRAM PROCESS ID                                 23866
  **** **  *******  **  PROGRAM STOPPED IN /wrk/jagermar/DONOTREMOVE/critcat/mos
                                           s/cp2k/h_single_tri-hex/fdsmear_pbe_d
                                           zvp-molopt-sr-gth/different_cluster_s
                                           ites_from_pyclusgeo/pes_sp_full_scan_
                                           n4-n11/gopt_n9_cut1_s50/pes_h_n9_cut1
                                           _s50_1_55
