      32
 i =        1, E =     -1539.6243957424
 Cu        -0.6392095126        1.8403878983        9.9754162864
 Cu         1.9155318086        1.8415349870        9.9766399615
 Cu         4.4661021161        1.8403874702        9.9754163834
 Cu         7.0208416557        1.8415352940        9.9766396848
 Cu         0.6391527312        4.0547369676        9.9753605768
 Cu         3.1898115103        4.0535387139        9.9749296550
 Cu         5.7444643763        4.0547362374        9.9753605889
 Cu         8.2951222449        4.0535383050        9.9749297265
 Cu         1.9134458367        6.2617159500        9.9754163498
 Cu         4.4681870011        6.2628626097        9.9766399907
 Cu         7.0187571987        6.2617163843        9.9754162590
 Cu         9.5734973948        6.2628632547        9.9766396458
 Cu         3.1918078845        8.4760647628        9.9753608978
 Cu         5.7424670028        8.4748669430        9.9749299597
 Cu         8.2971201383        8.4760643635        9.9753608480
 Cu        10.8477772609        8.4748672729        9.9749296411
 Cu        -0.6371560197        0.3677910674       12.1093045161
 Cu         1.9135030877        0.3665932157       12.1088735582
 Cu         4.4681555964        0.3677907053       12.1093048251
 Cu         7.0188127338        0.3665936474       12.1088736416
 Cu         0.6371239524        2.5797953470       12.1075944705
 Cu         3.1918651246        2.5809420095       12.1088181080
 Cu         5.7424354894        2.5797947423       12.1075948176
 Cu         8.2971756777        2.5809416139       12.1088182066
 Cu         1.9154994433        4.7891192179       12.1093048291
 Cu         4.4661582665        4.7879209669       12.1088738923
 Cu         7.0208106394        4.7891196568       12.1093047341
 Cu         9.5714684644        4.7879217232       12.1088738809
 Cu         3.1897791635        7.0011229717       12.1075945404
 Cu         5.7445205181        7.0022700503       12.1088181926
 Cu         8.2950912158        7.0011226576       12.1075947772
 Cu        10.8498307235        7.0022704962       12.1088181045
      32
 i =        2, E =     -1539.6347765813
 Cu        -0.6415740167        1.8360535268        9.9262299511
 Cu         1.9190116985        1.8393064931        9.9275590030
 Cu         4.4637384513        1.8360528784        9.9262301275
 Cu         7.0243185759        1.8393076913        9.9275584969
 Cu         0.6416065389        4.0589999883        9.9261552197
 Cu         3.1862838747        4.0557744188        9.9245532420
 Cu         5.7469186651        4.0589984665        9.9261555000
 Cu         8.2915943045        4.0557727528        9.9245534976
 Cu         1.9110810943        6.2573803261        9.9262300447
 Cu         4.4716668984        6.2606313459        9.9275587462
 Cu         7.0163930452        6.2573816357        9.9262300741
 Cu         9.5769754758        6.2606336892        9.9275582869
 Cu         3.1942608585        8.4803257945        9.9261557752
 Cu         5.7389394886        8.4771005382        9.9245537071
 Cu         8.2995745905        8.4803249813        9.9261557950
 Cu        10.8442478060        8.4771021083        9.9245534055
 Cu        -0.6336285308        0.3655574479       12.1596807453
 Cu         1.9110500912        0.3623321800       12.1580787111
 Cu         4.4716850606        0.3655558425       12.1596810680
 Cu         7.0163583153        0.3623329573       12.1580786516
 Cu         0.6336440634        2.5820265944       12.1566757384
 Cu         3.1942298516        2.5852776584       12.1580044469
 Cu         5.7389573890        2.5820243040       12.1566762039
 Cu         8.2995398505        2.5852763125       12.1580044138
 Cu         1.9190271079        4.7868835412       12.1596812096
 Cu         4.4637043911        4.7836580046       12.1580792560
 Cu         7.0243385599        4.7868852269       12.1596810111
 Cu         9.5690142367        4.7836595150       12.1580789809
 Cu         3.1862992552        7.0033514690       12.1566754204
 Cu         5.7468849462        7.0066044572       12.1580045060
 Cu         8.2916143240        7.0033502697       12.1566759918
 Cu        10.8521944665        7.0066050969       12.1580043172
      32
 i =        3, E =     -1539.6354229998
 Cu        -0.6435056484        1.8331132235        9.8379579756
 Cu         1.9261537853        1.8349579068        9.8436470863
 Cu         4.4618073954        1.8331129143        9.8379590133
 Cu         7.0314560119        1.8349609404        9.8436454593
 Cu         0.6432247117        4.0621330856        9.8377705809
 Cu         3.1790630228        4.0601673965        9.8346486497
 Cu         5.7485363867        4.0621313214        9.8377718551
 Cu         8.2843736755        4.0601638373        9.8346495321
 Cu         1.9091499681        6.2544399252        9.8379583208
 Cu         4.4788106847        6.2562799520        9.8436456341
 Cu         7.0144622140        6.2544417365        9.8379587437
 Cu         9.5841156821        6.2562849603        9.8436441288
 Cu         3.1958786107        8.4834585610        9.8377723853
 Cu         5.7317195024        8.4814905140        9.8346495595
 Cu         8.3011927492        8.4834570685        9.8377728320
 Cu        10.8370242775        8.4814946828        9.8346485603
 Cu        -0.6264085844        0.3611674447       12.2495848514
 Cu         1.9094323212        0.3591994134       12.2464621309
 Cu         4.4789086069        0.3611632321       12.2495858991
 Cu         7.0147401642        0.3592008251       12.2464615586
 Cu         0.6265003002        2.5863779607       12.2405888936
 Cu         3.1961609703        2.5882180737       12.2462762138
 Cu         5.7318171402        2.5863730273       12.2405904095
 Cu         8.3014706945        2.5882161769       12.2462757759
 Cu         1.9262480076        4.7824905964       12.2495857660
 Cu         4.4620861847        4.7805249425       12.2464639176
 Cu         7.0315591555        4.7824941663       12.2495850622
 Cu         9.5673965625        4.7805266787       12.2464626383
 Cu         3.1791571431        7.0077000643       12.2405872038
 Cu         5.7488165375        7.0095447838       12.2462764432
 Cu         8.2844769278        7.0076970397       12.2405890767
 Cu        10.8541255680        7.0095450789       12.2462753708
      32
 i =        4, E =     -1539.6361437191
 Cu        -0.6414951229        1.8364931298        9.8653908462
 Cu         1.9247265418        1.8359714088        9.8673246706
 Cu         4.4638174622        1.8364927551        9.8653906451
 Cu         7.0300315797        1.8359735075        9.8673244106
 Cu         0.6413618533        4.0586735635        9.8653803344
 Cu         3.1804229934        4.0592070316        9.8647071169
 Cu         5.7466734728        4.0586723993        9.8653802554
 Cu         8.2857338595        4.0592048341        9.8647072534
 Cu         1.9111606679        6.2578206284        9.8653908023
 Cu         4.4773831832        6.2572960990        9.8673238877
 Cu         7.0164722442        6.2578218301        9.8653907833
 Cu         9.5826899925        6.2572996074        9.8673237046
 Cu         3.1940165135        8.4800005392        9.8653806379
 Cu         5.7330793878        8.4805323417        9.8647072452
 Cu         8.2993295075        8.4799993514        9.8653804216
 Cu        10.8383859797        8.4805352111        9.8647072486
 Cu        -0.6277684526        0.3621256346       12.2195272209
 Cu         1.9112944337        0.3626574367       12.2188538634
 Cu         4.4775469050        0.3621227232       12.2195272338
 Cu         7.0166033937        0.3626585934       12.2188540323
 Cu         0.6279277906        2.5853618373       12.2169106210
 Cu         3.1941502840        2.5848373583       12.2188437048
 Cu         5.7332428540        2.5853583859       12.2169107954
 Cu         8.2994606465        2.5848361253       12.2188436813
 Cu         1.9248880043        4.7834509439       12.2195273491
 Cu         4.4639490888        4.7839844275       12.2188541404
 Cu         7.0301989926        4.7834531526       12.2195272185
 Cu         9.5692594249        4.7839855826       12.2188542008
 Cu         3.1805843993        7.0066865586       12.2169097242
 Cu         5.7468060618        7.0061648460       12.2188436178
 Cu         8.2859013347        7.0066844577       12.2169100780
 Cu        10.8521154475        7.0061652251       12.2188438029
      32
 i =        5, E =     -1539.6376883521
 Cu        -0.6402735819        1.8387078492        9.8796182169
 Cu         1.9249199187        1.8359816654        9.8843022232
 Cu         4.4650389149        1.8387074268        9.8796177177
 Cu         7.0302263471        1.8359832534        9.8843017897
 Cu         0.6400486102        4.0565119941        9.8796096719
 Cu         3.1804315575        4.0590865627        9.8786346997
 Cu         5.7453602672        4.0565108729        9.8796093595
 Cu         8.2857424942        4.0590849933        9.8786348458
 Cu         1.9123819861        6.2600352552        9.8796178995
 Cu         4.4775764195        6.2573072330        9.8843004660
 Cu         7.0176935915        6.2600364485        9.8796179231
 Cu         9.5828840498        6.2573100664        9.8843001318
 Cu         3.1927034463        8.4778392784        9.8796101304
 Cu         5.7330877680        8.4804127703        9.8786349346
 Cu         8.2980163673        8.4778381298        9.8796096896
 Cu        10.8383952621        8.4804149980        9.8786348355
 Cu        -0.6277768150        0.3622452187       12.2055995208
 Cu         1.9126075118        0.3648187078       12.2046243831
 Cu         4.4775376174        0.3622429524       12.2055996442
 Cu         7.0179165195        0.3648198348       12.2046247602
 Cu         0.6277345587        2.5853507045       12.1999340748
 Cu         3.1929289649        2.5826227164       12.2046166269
 Cu         5.7330488018        2.5853479266       12.1999343977
 Cu         8.2982392989        2.5826215152       12.2046165290
 Cu         1.9248794280        4.7835713957       12.2055997734
 Cu         4.4652623488        4.7861459722       12.2046248073
 Cu         7.0301903628        4.7835729874       12.2055996260
 Cu         9.5705726163        4.7861471031       12.2046250825
 Cu         3.1803910264        7.0066763054       12.1999321072
 Cu         5.7455845461        7.0039501247       12.2046162458
 Cu         8.2857065511        7.0066747143       12.1999327141
 Cu        10.8508939700        7.0039505574       12.2046167177
      32
 i =        6, E =     -1539.4815300024
 Cu        -0.6301675249        1.8545172968       10.1029268257
 Cu         1.9289186965        1.8345186209       10.1343020347
 Cu         4.4751441612        1.8545174668       10.1029235817
 Cu         7.0342358685        1.8345158733       10.1342973621
 Cu         0.6311092485        4.0400070929       10.1026256979
 Cu         3.1797859494        4.0586057402       10.0912157133
 Cu         5.7364214285        4.0400053490       10.1026232841
 Cu         8.2850964845        4.0586080611       10.0912165169
 Cu         1.9224861682        6.2758438027       10.1029251004
 Cu         4.4815718645        6.2558505347       10.1342971170
 Cu         7.0277991778        6.2758451603       10.1029252521
 Cu         9.5868867505        6.2558474654       10.1342920640
 Cu         3.1837641208        8.4613330763       10.1026294191
 Cu         5.7324396035        8.4799380352       10.0912162870
 Cu         8.2890772307        8.4613325538       10.1026271447
 Cu        10.8377547969        8.4799350349       10.0912166469
 Cu        -0.6271285377        0.3627200007       11.9930180087
 Cu         1.9215468961        0.3813249153       11.9816051933
 Cu         4.4781780575        0.3627230146       11.9930177176
 Cu         7.0268555717        0.3813255103       11.9816073302
 Cu         0.6237391203        2.5868074410       11.9499375831
 Cu         3.1828248121        2.5668141001       11.9813095904
 Cu         5.7290462029        2.5868105107       11.9499425493
 Cu         8.2881336986        2.5668128554       11.9813090343
 Cu         1.9255249536        4.7840521378       11.9930188388
 Cu         4.4742017950        4.8026507860       11.9816088181
 Cu         7.0308364043        4.7840498998       11.9930180614
 Cu         9.5795113840        4.8026526140       11.9816109890
 Cu         3.1763922295        7.0081394029       11.9499321072
 Cu         5.7354785968        6.9881406565       11.9813076130
 Cu         8.2816969329        7.0081420657       11.9499371893
 Cu        10.8407886076        6.9881405274       11.9813107705
      32
 i =        7, E =     -1539.6394557461
 Cu        -0.6393502449        1.8401531322        9.8942737244
 Cu         1.9263936304        1.8351858690        9.9003004500
 Cu         4.4659622900        1.8401527860        9.8942730435
 Cu         7.0317006892        1.8351871765        9.9002995674
 Cu         0.6392202408        4.0550004642        9.8942675585
 Cu         3.1792852835        4.0596862667        9.8929924673
 Cu         5.7445319641        4.0549992004        9.8942670770
 Cu         8.2845961506        4.0596849346        9.8929926746
 Cu         1.9133050924        6.2614802931        9.8942732434
 Cu         4.4790498058        6.2565118230        9.9002983729
 Cu         7.0186168831        6.2614816255        9.8942732661
 Cu         9.5843578428        6.2565143200        9.9002975754
 Cu         3.1918749856        8.4763274905        9.8942680060
 Cu         5.7319412873        8.4810128783        9.8929927014
 Cu         8.2971879716        8.4763263752        9.8942674456
 Cu        10.8372493003        8.4810147530        9.8929927860
 Cu        -0.6266303269        0.3616451088       12.1912417339
 Cu         1.9134359754        0.3663304973       12.1899665077
 Cu         4.4786835815        0.3616432016       12.1912416799
 Cu         7.0187449115        0.3663315943       12.1899670104
 Cu         0.6262611746        2.5861461179       12.1839361861
 Cu         3.1920058586        2.5811776726       12.1899612875
 Cu         5.7315750163        2.5861436709       12.1839369596
 Cu         8.2973160070        2.5811763415       12.1899611734
 Cu         1.9260256962        4.7829716909       12.1912420192
 Cu         4.4660907217        4.7876574979       12.1899669258
 Cu         7.0313367064        4.7829730472       12.1912418032
 Cu         9.5714009155        4.7876587743       12.1899673557
 Cu         3.1789173088        7.0074721082       12.1839338694
 Cu         5.7446612156        7.0025048428       12.1899607388
 Cu         8.2842322034        7.0074707892       12.1839349390
 Cu        10.8499705903        7.0025051994       12.1899613918
      32
 i =        8, E =     -1539.6395965477
 Cu        -0.6387968492        1.8406689969        9.9008898978
 Cu         1.9274754434        1.8345803082        9.9029380648
 Cu         4.4665156738        1.8406686507        9.9008895535
 Cu         7.0327829564        1.8345814733        9.9029376067
 Cu         0.6390091500        4.0542843742        9.9008699137
 Cu         3.1781033488        4.0603554038        9.8993838711
 Cu         5.7443208004        4.0542831389        9.9008696783
 Cu         8.2834141196        4.0603541745        9.8993840511
 Cu         1.9138585415        6.2619961156        9.9008899152
 Cu         4.4801313222        6.2559066331        9.9029379118
 Cu         7.0191702403        6.2619976094        9.9008898387
 Cu         9.5854396751        6.2559088899        9.9029372980
 Cu         3.1916638232        8.4756110281        9.9008703825
 Cu         5.7307592088        8.4816822114        9.8993839710
 Cu         8.2969767310        8.4756100538        9.9008701699
 Cu        10.8360674787        8.4816839426        9.8993840973
 Cu        -0.6254482509        0.3609757717       12.1848504732
 Cu         1.9136471372        0.3670469484       12.1833641188
 Cu         4.4798654077        0.3609740101       12.1848503624
 Cu         7.0189561557        0.3670479135       12.1833643006
 Cu         0.6251796461        2.5867513192       12.1812965970
 Cu         3.1914524175        2.5806618606       12.1833445893
 Cu         5.7304931943        2.5867490969       12.1812971865
 Cu         8.2967626453        2.5806603563       12.1833446105
 Cu         1.9272076278        4.7823025606       12.1848506043
 Cu         4.4663018102        4.7883735974       12.1833645546
 Cu         7.0325187393        4.7823038079       12.1848504443
 Cu         9.5716120803        4.7883748437       12.1833647693
 Cu         3.1778354960        7.0080776679       12.1812963676
 Cu         5.7441078114        7.0019889723       12.1833445674
 Cu         8.2831499400        7.0080764882       12.1812968644
 Cu        10.8494172094        7.0019893316       12.1833449042
      32
 i =        9, E =     -1539.6396336273
 Cu        -0.6387755992        1.8406904397        9.8996514752
 Cu         1.9283193987        1.8341001749        9.9004800170
 Cu         4.4665369365        1.8406900461        9.8996512846
 Cu         7.0336271885        1.8341012252        9.9004798465
 Cu         0.6389764482        4.0542728850        9.8996289168
 Cu         3.1771708140        4.0608935779        9.8985206803
 Cu         5.7442880518        4.0542716795        9.8996287728
 Cu         8.2824815843        4.0608923929        9.8985207415
 Cu         1.9138797764        6.2620174763        9.8996515053
 Cu         4.4809751823        6.2554266446        9.9004802063
 Cu         7.0191914191        6.2620191070        9.8996514434
 Cu         9.5862837616        6.2554287682        9.9004798798
 Cu         3.1916310640        8.4755994598        9.8996291738
 Cu         5.7298266172        8.4822204982        9.8985207466
 Cu         8.2969439269        8.4755985264        9.8996290958
 Cu        10.8351350694        8.4822221355        9.8985208131
 Cu        -0.6245156635        0.3604374828       12.1857137153
 Cu         1.9136798949        0.3670585155       12.1846053110
 Cu         4.4807978179        0.3604358167       12.1857136516
 Cu         7.0189889627        0.3670594375       12.1846053805
 Cu         0.6243357826        2.5872313109       12.1837542783
 Cu         3.1914311839        2.5806405054       12.1845829769
 Cu         5.7296491103        2.5872292161       12.1837545950
 Cu         8.2967414658        2.5806388587       12.1845830153
 Cu         1.9281401618        4.7817643913       12.1857137912
 Cu         4.4663345114        4.7883850903       12.1846055495
 Cu         7.0334512779        4.7817655880       12.1857137454
 Cu         9.5716448294        4.7883863061       12.1846056870
 Cu         3.1769915422        7.0085578000       12.1837544464
 Cu         5.7440865573        7.0019675259       12.1845829972
 Cu         8.2823057083        7.0085567378       12.1837546199
 Cu        10.8493959502        7.0019679355       12.1845831854
      32
 i =       10, E =     -1539.6396472361
 Cu        -0.6387124173        1.8409029124        9.8993381406
 Cu         1.9297510687        1.8332970520        9.8995653495
 Cu         4.4666001698        1.8409024300        9.8993380692
 Cu         7.0350593540        1.8332978744        9.8995653806
 Cu         0.6387852171        4.0541385289        9.8993228800
 Cu         3.1756712246        4.0617407710        9.8988329597
 Cu         5.7440967990        4.0541373137        9.8993228017
 Cu         8.2809819319        4.0617397411        9.8988328575
 Cu         1.9139428453        6.2622297375        9.8993380463
 Cu         4.4824066550        6.2546237639        9.8995655580
 Cu         7.0192544925        6.2622315868        9.8993380313
 Cu         9.5877156448        6.2546256357        9.8995654906
 Cu         3.1914397440        8.4754650138        9.8993227987
 Cu         5.7283268874        8.4830679414        9.8988330427
 Cu         8.2967525949        8.4754641040        9.8993228159
 Cu        10.8336357447        8.4830693378        9.8988330501
 Cu        -0.6230159354        0.3595900360       12.1854014303
 Cu         1.9138712133        0.3671929618       12.1849116669
 Cu         4.4822971412        0.3595886149       12.1854014184
 Cu         7.0191802960        0.3671938551       12.1849116633
 Cu         0.6229043084        2.5880341948       12.1846689098
 Cu         3.1913681145        2.5804282484       12.1848964163
 Cu         5.7282172284        2.5880323464       12.1846689815
 Cu         8.2966783936        2.5804263800       12.1848964383
 Cu         1.9296397487        4.7809172038       12.1854015146
 Cu         4.4665257437        4.7885194488       12.1849115892
 Cu         7.0349509360        4.7809182389       12.1854016160
 Cu         9.5718360829        4.7885206766       12.1849116717
 Cu         3.1755598754        7.0093609204       12.1846691321
 Cu         5.7440233742        7.0017550498       12.1848963371
 Cu         8.2808735397        7.0093600919       12.1846690869
 Cu        10.8493327185        7.0017555519       12.1848964081
      32
 i =       11, E =     -1539.6396588472
 Cu        -0.6387124173        1.8409029124        9.8993381406
 Cu         1.9297510687        1.8332970520        9.8995653495
 Cu         4.4666001698        1.8409024300        9.8993380692
 Cu         7.0350593540        1.8332978744        9.8995653806
 Cu         0.6387852171        4.0541385289        9.8993228800
 Cu         3.1756712246        4.0617407710        9.8988329597
 Cu         5.7440967990        4.0541373137        9.8993228017
 Cu         8.2809819319        4.0617397411        9.8988328575
 Cu         1.9139428453        6.2622297375        9.8993380463
 Cu         4.4824066550        6.2546237639        9.8995655580
 Cu         7.0192544925        6.2622315868        9.8993380313
 Cu         9.5877156448        6.2546256357        9.8995654906
 Cu         3.1914397440        8.4754650138        9.8993227987
 Cu         5.7283268874        8.4830679414        9.8988330427
 Cu         8.2967525949        8.4754641040        9.8993228159
 Cu        10.8336357447        8.4830693378        9.8988330501
 Cu        -0.6230159354        0.3595900360       12.1854014303
 Cu         1.9138712133        0.3671929618       12.1849116669
 Cu         4.4822971412        0.3595886149       12.1854014184
 Cu         7.0191802960        0.3671938551       12.1849116633
 Cu         0.6229043084        2.5880341948       12.1846689098
 Cu         3.1913681145        2.5804282484       12.1848964163
 Cu         5.7282172284        2.5880323464       12.1846689815
 Cu         8.2966783936        2.5804263800       12.1848964383
 Cu         1.9296397487        4.7809172038       12.1854015146
 Cu         4.4665257437        4.7885194488       12.1849115892
 Cu         7.0349509360        4.7809182389       12.1854016160
 Cu         9.5718360829        4.7885206766       12.1849116717
 Cu         3.1755598754        7.0093609204       12.1846691321
 Cu         5.7440233742        7.0017550498       12.1848963371
 Cu         8.2808735397        7.0093600919       12.1846690869
 Cu        10.8493327185        7.0017555519       12.1848964081
