# Projected DOS for atomic kind Cu at iteration step i = 1, E(Fermi) =    -0.100493 a.u.
#     MO Eigenvalue [a.u.]      Occupation                 s                 p                 d                 f
       1         -0.401720        1.000000        0.80401124        0.11613759        0.06420837        0.01564281
       2         -0.334389        1.000000        0.24885658        0.44445049        0.27454361        0.03214932
       3         -0.334387        1.000000        0.24888750        0.44449323        0.27448101        0.03213827
       4         -0.334333        1.000000        0.24867361        0.44456376        0.27462620        0.03213644
       5         -0.334323        1.000000        0.24867653        0.44460858        0.27457008        0.03214482
       6         -0.334278        1.000000        0.24845863        0.44462207        0.27476567        0.03215362
       7         -0.334269        1.000000        0.24846284        0.44467637        0.27471798        0.03214281
       8         -0.305847        1.000000        0.16388950        0.18296113        0.63846853        0.01468084
       9         -0.269997        1.000000        0.07259930        0.02249200        0.89702724        0.00788146
      10         -0.269993        1.000000        0.07260080        0.02249454        0.89702488        0.00787978
      11         -0.269989        1.000000        0.07262552        0.02248284        0.89700575        0.00788589
      12         -0.269544        1.000000        0.03565228        0.01596729        0.93826566        0.01011477
      13         -0.269529        1.000000        0.03566133        0.01601050        0.93821288        0.01011529
      14         -0.269524        1.000000        0.03566029        0.01597981        0.93824470        0.01011520
      15         -0.261268        1.000000        0.05510368        0.15308776        0.75825709        0.03355147
      16         -0.261268        1.000000        0.05508014        0.15312097        0.75825813        0.03354076
      17         -0.261254        1.000000        0.05523519        0.15318005        0.75799320        0.03359156
      18         -0.261251        1.000000        0.05513633        0.15322259        0.75807869        0.03356239
      19         -0.261251        1.000000        0.05511868        0.15324697        0.75808033        0.03355401
      20         -0.261248        1.000000        0.05506617        0.15325089        0.75814013        0.03354281
      21         -0.260550        1.000000        0.07942921        0.10148179        0.77480061        0.04428840
      22         -0.260511        1.000000        0.07947229        0.10157628        0.77465403        0.04429739
      23         -0.260468        1.000000        0.07924970        0.10141471        0.77506886        0.04426673
      24         -0.260466        1.000000        0.07912623        0.10106320        0.77552901        0.04428156
      25         -0.260465        1.000000        0.07931715        0.10134089        0.77504281        0.04429915
      26         -0.260422        1.000000        0.07914094        0.10113898        0.77543317        0.04428690
      27         -0.250331        1.000000        0.00080152        0.04537000        0.94987264        0.00395585
      28         -0.250331        1.000000        0.00080135        0.04536863        0.94987417        0.00395585
      29         -0.250305        1.000000        0.00082010        0.04546532        0.94974993        0.00396464
      30         -0.242840        1.000000        0.00937368        0.09713600        0.88308075        0.01040958
      31         -0.242840        1.000000        0.00937383        0.09713666        0.88307989        0.01040961
      32         -0.242835        1.000000        0.00940063        0.09716547        0.88300926        0.01042463
      33         -0.242822        1.000000        0.00938262        0.09717033        0.88303183        0.01041522
      34         -0.242822        1.000000        0.00938509        0.09717030        0.88302897        0.01041564
      35         -0.242809        1.000000        0.00936982        0.09717480        0.88304716        0.01040822
      36         -0.239517        1.000000        0.00266963        0.08462012        0.90218203        0.01052822
      37         -0.239517        1.000000        0.00266998        0.08462018        0.90218165        0.01052820
      38         -0.239507        1.000000        0.00265327        0.08470483        0.90211282        0.01052908
      39         -0.239501        1.000000        0.00265091        0.08471828        0.90209968        0.01053114
      40         -0.239501        1.000000        0.00265284        0.08471807        0.90209759        0.01053150
      41         -0.239498        1.000000        0.00264707        0.08473414        0.90208570        0.01053309
      42         -0.232379        1.000000        0.00204738        0.03666176        0.94279461        0.01849626
      43         -0.232377        1.000000        0.00195299        0.03687910        0.94274467        0.01842325
      44         -0.232375        1.000000        0.00213094        0.03648415        0.94281370        0.01857122
      45         -0.232370        1.000000        0.00203331        0.03669275        0.94277609        0.01849785
      46         -0.232347        1.000000        0.00197641        0.03682116        0.94278219        0.01842024
      47         -0.232345        1.000000        0.00214426        0.03645519        0.94284255        0.01855800
      48         -0.221910        1.000000        0.00157074        0.01334826        0.98098192        0.00409908
      49         -0.221910        1.000000        0.00157058        0.01334903        0.98098129        0.00409911
      50         -0.221884        1.000000        0.00158787        0.01335787        0.98096066        0.00409360
      51         -0.220949        1.000000        0.01176973        0.07317784        0.90630750        0.00874494
      52         -0.220904        1.000000        0.01178994        0.07322213        0.90625678        0.00873115
      53         -0.220902        1.000000        0.01172344        0.07319805        0.90634956        0.00872894
      54         -0.220902        1.000000        0.01180629        0.07331526        0.90612554        0.00875290
      55         -0.220855        1.000000        0.01182113        0.07336865        0.90607767        0.00873255
      56         -0.220814        1.000000        0.01177162        0.07337946        0.90613278        0.00871613
      57         -0.217088        1.000000        0.01873801        0.03689163        0.92874860        0.01562175
      58         -0.217088        1.000000        0.01873595        0.03688958        0.92875332        0.01562115
      59         -0.217078        1.000000        0.01905876        0.03785106        0.92750154        0.01558864
      60         -0.217068        1.000000        0.01899453        0.03765274        0.92775164        0.01560109
      61         -0.217066        1.000000        0.01898257        0.03759640        0.92782389        0.01559713
      62         -0.217055        1.000000        0.01889888        0.03734723        0.92814772        0.01560617
      63         -0.216323        1.000000        0.01000319        0.02821259        0.96059453        0.00118970
      64         -0.215693        1.000000        0.01383287        0.05885346        0.90605790        0.02125577
      65         -0.215690        1.000000        0.01381305        0.05872033        0.90620210        0.02126452
      66         -0.215689        1.000000        0.01389906        0.05887139        0.90589309        0.02133647
      67         -0.215679        1.000000        0.01387815        0.05859769        0.90619798        0.02132618
      68         -0.215674        1.000000        0.01390446        0.05899135        0.90579557        0.02130862
      69         -0.215673        1.000000        0.01390560        0.05898693        0.90579737        0.02131010
      70         -0.215146        1.000000        0.00000001        0.00037446        0.99802152        0.00160401
      71         -0.215095        1.000000        0.00000009        0.00037509        0.99801896        0.00160585
      72         -0.214455        1.000000        0.00493032        0.07833925        0.90843085        0.00829959
      73         -0.214437        1.000000        0.00490694        0.07805007        0.90866894        0.00837404
      74         -0.214436        1.000000        0.00489990        0.07797610        0.90873737        0.00838663
      75         -0.214433        1.000000        0.00476644        0.07782904        0.90908659        0.00831793
      76         -0.214404        1.000000        0.00510866        0.07887358        0.90767032        0.00834744
      77         -0.214403        1.000000        0.00511208        0.07887633        0.90766260        0.00834899
      78         -0.212244        1.000000        0.00000002        0.00061376        0.99754121        0.00184501
      79         -0.212189        1.000000        0.00000048        0.00061578        0.99753712        0.00184661
      80         -0.211600        1.000000        0.01810015        0.07390284        0.89591037        0.01208664
      81         -0.211553        1.000000        0.01799440        0.07381267        0.89603346        0.01215948
      82         -0.211539        1.000000        0.01810339        0.07385291        0.89587228        0.01217142
      83         -0.211519        1.000000        0.01797494        0.07379098        0.89605924        0.01217484
      84         -0.211473        1.000000        0.01787141        0.07367192        0.89620530        0.01225137
      85         -0.211422        1.000000        0.01788599        0.07362462        0.89615973        0.01232965
      86         -0.207423        1.000000        0.01671568        0.04356946        0.92042832        0.01928654
      87         -0.207389        1.000000        0.01664164        0.04339390        0.92050483        0.01945963
      88         -0.207370        1.000000        0.01680476        0.04382414        0.92010396        0.01926714
      89         -0.207368        1.000000        0.01666154        0.04352222        0.92031243        0.01950381
      90         -0.207335        1.000000        0.01659075        0.04335882        0.92037724        0.01967319
      91         -0.207288        1.000000        0.01668585        0.04361646        0.92006412        0.01963357
      92         -0.205132        1.000000        0.00117562        0.02107241        0.96583166        0.01192031
      93         -0.205122        1.000000        0.00116799        0.02094628        0.96595761        0.01192812
      94         -0.205122        1.000000        0.00117120        0.02095112        0.96594941        0.01192827
      95         -0.205113        1.000000        0.00116794        0.02083976        0.96605865        0.01193365
      96         -0.205075        1.000000        0.00116770        0.02096039        0.96593344        0.01193847
      97         -0.205075        1.000000        0.00117023        0.02096733        0.96592442        0.01193803
      98         -0.198460        1.000000        0.00000002        0.00255454        0.99392898        0.00351645
      99         -0.198398        1.000000        0.00000006        0.00255485        0.99392667        0.00351842
     100         -0.198396        1.000000        0.00000005        0.00255386        0.99392756        0.00351854
     101         -0.196295        1.000000        0.00000002        0.00792156        0.98073306        0.01134536
     102         -0.196244        1.000000        0.00000008        0.00793304        0.98071006        0.01135682
     103         -0.196181        1.000000        0.00000009        0.00790808        0.98075160        0.01134023
     104         -0.196170        1.000000        0.00000015        0.00790449        0.98075199        0.01134337
     105         -0.196166        1.000000        0.00000005        0.00786885        0.98081379        0.01131732
     106         -0.196107        1.000000        0.00000010        0.00787691        0.98079595        0.01132704
     107         -0.192239        1.000000        0.00000032        0.00455242        0.98267302        0.01277424
     108         -0.192198        1.000000        0.00000035        0.00455327        0.98266369        0.01278268
     109         -0.192058        1.000000        0.00000128        0.00456944        0.98264025        0.01278903
     110         -0.192040        1.000000        0.00000006        0.00457289        0.98263487        0.01279218
     111         -0.191961        1.000000        0.00000033        0.00458169        0.98263033        0.01278766
     112         -0.191900        1.000000        0.00000034        0.00458463        0.98261782        0.01279721
     113         -0.187330        1.000000        0.01426675        0.04556442        0.93395583        0.00621299
     114         -0.187289        1.000000        0.01424594        0.04559950        0.93393542        0.00621914
     115         -0.187277        1.000000        0.01421532        0.04558051        0.93401034        0.00619383
     116         -0.187262        1.000000        0.01421531        0.04557350        0.93402263        0.00618856
     117         -0.187210        1.000000        0.01416688        0.04559367        0.93407053        0.00616892
     118         -0.187176        1.000000        0.01415259        0.04562698        0.93404266        0.00617777
     119         -0.185215        1.000000        0.00590978        0.05845950        0.92818190        0.00744882
     120         -0.185214        1.000000        0.00590929        0.05845716        0.92818538        0.00744817
     121         -0.185196        1.000000        0.00591783        0.05847768        0.92814807        0.00745642
     122         -0.185052        1.000000        0.00000016        0.00226149        0.99030488        0.00743347
     123         -0.185000        1.000000        0.00000018        0.00225755        0.99030799        0.00743427
     124         -0.184912        1.000000        0.00000007        0.00230008        0.99024050        0.00745935
     125         -0.184910        1.000000        0.00000053        0.00229410        0.99025047        0.00745489
     126         -0.184884        1.000000        0.00000011        0.00233336        0.99019048        0.00747605
     127         -0.184821        1.000000        0.00000014        0.00233421        0.99018589        0.00747977
     128         -0.182373        1.000000        0.00142563        0.00290100        0.98561235        0.01006102
     129         -0.182371        1.000000        0.00142102        0.00289622        0.98562399        0.01005877
     130         -0.182370        1.000000        0.00142112        0.00289628        0.98562395        0.01005865
     131         -0.182367        1.000000        0.00141764        0.00289206        0.98563455        0.01005575
     132         -0.182328        1.000000        0.00143564        0.00288296        0.98562987        0.01005153
     133         -0.182328        1.000000        0.00143556        0.00288310        0.98562989        0.01005145
     134         -0.182050        1.000000        0.00000001        0.00019680        0.99755328        0.00224992
     135         -0.181964        1.000000        0.00000000        0.00019702        0.99755209        0.00225088
     136         -0.177174        1.000000        0.00334176        0.01292043        0.97314477        0.01059305
     137         -0.177173        1.000000        0.00332169        0.01286464        0.97323338        0.01058030
     138         -0.177172        1.000000        0.00332173        0.01286475        0.97323323        0.01058028
     139         -0.177172        1.000000        0.00334484        0.01292053        0.97313974        0.01059489
     140         -0.177172        1.000000        0.00334459        0.01292048        0.97313997        0.01059495
     141         -0.177170        1.000000        0.00334639        0.01291757        0.97313993        0.01059610
     142         -0.177165        1.000000        0.14092109        0.26454600        0.59197828        0.00255464
     143         -0.175802        1.000000        0.00707759        0.05445192        0.92686623        0.01160427
     144         -0.175801        1.000000        0.00731913        0.05482221        0.92627377        0.01158490
     145         -0.175763        1.000000        0.00723850        0.05468439        0.92647933        0.01159778
     146         -0.173303        1.000000        0.00000007        0.00249230        0.99405709        0.00345053
     147         -0.173239        1.000000        0.00000025        0.00249455        0.99405367        0.00345154
     148         -0.173238        1.000000        0.00000031        0.00249482        0.99405335        0.00345152
     149         -0.170413        1.000000        0.00000004        0.00072389        0.99635417        0.00292191
     150         -0.170399        1.000000        0.00000005        0.00071243        0.99636728        0.00292024
     151         -0.170348        1.000000        0.00000007        0.00072458        0.99635274        0.00292260
     152         -0.170341        1.000000        0.00000018        0.00071889        0.99636120        0.00291973
     153         -0.170340        1.000000        0.00000005        0.00071855        0.99635782        0.00292358
     154         -0.170333        1.000000        0.00000008        0.00071236        0.99636675        0.00292081
     155         -0.169953        1.000000        0.00000002        0.00044940        0.99693438        0.00261620
     156         -0.169866        1.000000        0.00000004        0.00045020        0.99693253        0.00261723
     157         -0.166642        1.000000        0.00362842        0.00808766        0.98663405        0.00164987
     158         -0.166642        1.000000        0.00362839        0.00808782        0.98663394        0.00164984
     159         -0.166627        1.000000        0.00361777        0.00808368        0.98665294        0.00164561
     160         -0.166623        1.000000        0.00362158        0.00808028        0.98665176        0.00164638
     161         -0.166623        1.000000        0.00362164        0.00808037        0.98665166        0.00164633
     162         -0.166620        1.000000        0.00362558        0.00807714        0.98665010        0.00164718
     163         -0.166095        1.000000        0.00000002        0.00000092        0.99990382        0.00009524
     164         -0.166031        1.000000        0.00000004        0.00000114        0.99990362        0.00009520
     165         -0.166030        1.000000        0.00000002        0.00000094        0.99990373        0.00009530
     166         -0.164413        1.000000        0.00000001        0.00010761        0.99958249        0.00030989
     167         -0.164348        1.000000        0.00000001        0.00010810        0.99958186        0.00031004
     168         -0.164347        1.000000        0.00000001        0.00010762        0.99958226        0.00031012
     169         -0.129350        1.000000        0.08089769        0.20846716        0.67859368        0.03204147
     170         -0.129335        1.000000        0.08088404        0.20842030        0.67866323        0.03203243
     171         -0.129306        1.000000        0.08084720        0.20838641        0.67871541        0.03205098
     172         -0.129301        1.000000        0.08081811        0.20842679        0.67868868        0.03206643
     173         -0.129256        1.000000        0.08076768        0.20834997        0.67880552        0.03207683
     174         -0.129247        1.000000        0.08076217        0.20831016        0.67886213        0.03206554
     175         -0.099778        0.288604        0.05179354        0.16015941        0.74503813        0.04300892
     176         -0.099775        0.287790        0.05180482        0.16015827        0.74502786        0.04300905
     177         -0.099775        0.287682        0.05180516        0.16015609        0.74503062        0.04300813
     178         -0.099771        0.286745        0.05181648        0.16015515        0.74501909        0.04300928
     179         -0.099767        0.285712        0.05178438        0.16013191        0.74505416        0.04302955
     180         -0.099767        0.285620        0.05178479        0.16012986        0.74505657        0.04302878
     181         -0.099736        0.277829        0.14415475        0.70090391        0.03928003        0.11566130
     182         -0.090963        0.000006        0.00503779        0.66693686        0.20863107        0.11939428
     183         -0.090963        0.000006        0.00503854        0.66693530        0.20863357        0.11939259
     184         -0.090922        0.000006        0.00503349        0.66691585        0.20865181        0.11939885
     185         -0.051330        0.000000        0.03444473        0.57620621        0.33635399        0.05299507
     186         -0.051328        0.000000        0.03444005        0.57619654        0.33636761        0.05299580
     187         -0.051281        0.000000        0.03442554        0.57616671        0.33641571        0.05299204
     188         -0.007716        0.000000        0.08898125        0.38465676        0.45845019        0.06791180
     189         -0.007702        0.000000        0.08900022        0.38458051        0.45852386        0.06789541
     190         -0.007701        0.000000        0.08900130        0.38457968        0.45852311        0.06789591
     191         -0.007701        0.000000        0.08894220        0.38459179        0.45854688        0.06791913
     192         -0.007701        0.000000        0.08894272        0.38459121        0.45854623        0.06791985
     193         -0.007686        0.000000        0.08901762        0.38450081        0.45860303        0.06787854
     194          0.003716        0.000000        0.03574452        0.39309169        0.51708902        0.05407477
     195          0.003733        0.000000        0.03574054        0.39304282        0.51715000        0.05406664
     196          0.003821        0.000000        0.03573631        0.39278838        0.51743941        0.05403590
     197          0.003837        0.000000        0.03573674        0.39279572        0.51746956        0.05399798
     198          0.003942        0.000000        0.03572524        0.39249327        0.51782338        0.05395811
     199          0.003944        0.000000        0.03572252        0.39248191        0.51783825        0.05395732
     200          0.081382        0.000000        0.18717829        0.21492901        0.59099799        0.00689471
     201          0.081383        0.000000        0.18718104        0.21492816        0.59099555        0.00689525
     202          0.081409        0.000000        0.18716180        0.21494787        0.59099614        0.00689419
     203          0.101855        0.000000        0.23746143        0.22362795        0.53660634        0.00230429
     204          0.107720        0.000000        0.25049370        0.19972059        0.51730760        0.03247811
     205          0.107723        0.000000        0.25044298        0.19974493        0.51733443        0.03247766
     206          0.107737        0.000000        0.25040035        0.19975677        0.51737369        0.03246919
     207          0.156737        0.000000        0.01400072        0.51849264        0.42710007        0.04040657
     208          0.156737        0.000000        0.01400082        0.51849231        0.42710075        0.04040613
     209          0.156741        0.000000        0.01402405        0.51850269        0.42708000        0.04039325
     210          0.156746        0.000000        0.01399416        0.51848626        0.42711297        0.04040661
     211          0.156746        0.000000        0.01399415        0.51848604        0.42711379        0.04040602
     212          0.156752        0.000000        0.01396135        0.51846456        0.42715432        0.04041976
     213          0.171595        0.000000        0.19364764        0.19835040        0.56129697        0.04670500
     214          0.171605        0.000000        0.19369488        0.19830022        0.56130520        0.04669971
     215          0.171660        0.000000        0.19374457        0.19818416        0.56138796        0.04668332
     216          0.171697        0.000000        0.19375401        0.19809058        0.56148276        0.04667265
     217          0.171762        0.000000        0.19388612        0.19789186        0.56157119        0.04665083
     218          0.171763        0.000000        0.19385179        0.19791462        0.56158081        0.04665277
     219          0.190462        0.000000        0.27504180        0.36998238        0.33966975        0.01530607
     220          0.190462        0.000000        0.27503847        0.36998146        0.33967402        0.01530605
     221          0.190482        0.000000        0.27635948        0.36952058        0.33882180        0.01529815
     222          0.190484        0.000000        0.27476683        0.37014164        0.33979483        0.01529670
     223          0.190485        0.000000        0.27484954        0.37011115        0.33974281        0.01529650
     224          0.190513        0.000000        0.27647442        0.36939388        0.33883113        0.01530056
     225          0.192283        0.000000        0.05502021        0.45753439        0.47346545        0.01397995
     226          0.192283        0.000000        0.05502380        0.45753783        0.47345962        0.01397876
     227          0.192288        0.000000        0.05357727        0.45810652        0.47432653        0.01398968
     228          0.192291        0.000000        0.05364208        0.45813946        0.47425948        0.01395898
     229          0.192302        0.000000        0.05517445        0.45747503        0.47337281        0.01397770
     230          0.192303        0.000000        0.05525741        0.45744701        0.47331954        0.01397604
     231          0.214209        0.000000        0.01907186        0.69731093        0.25172668        0.03189054
     232          0.214216        0.000000        0.01908719        0.69728425        0.25173923        0.03188933
     233          0.214223        0.000000        0.01910491        0.69724054        0.25176362        0.03189092
     234          0.226934        0.000000        0.10382161        0.48828133        0.40785377        0.00004329
     235          0.294531        0.000000        0.02219315        0.25966665        0.67579681        0.04234339
     236          0.294532        0.000000        0.02219347        0.25967927        0.67578363        0.04234363
     237          0.294550        0.000000        0.02220485        0.25968712        0.67576284        0.04234519
     238          0.299247        0.000000        0.01141150        0.65926730        0.30604849        0.02327271
     239          0.299247        0.000000        0.01142465        0.65924359        0.30605461        0.02327715
     240          0.299248        0.000000        0.01142342        0.65924277        0.30605683        0.02327698
     241          0.299265        0.000000        0.01142951        0.65922844        0.30607527        0.02326679
     242          0.299266        0.000000        0.01142791        0.65922726        0.30607821        0.02326662
     243          0.299281        0.000000        0.01144939        0.65920420        0.30608550        0.02326091
     244          0.325685        0.000000        0.04890513        0.55436311        0.33957656        0.05715519
     245          0.325712        0.000000        0.04885109        0.55431894        0.33968502        0.05714495
     246          0.325835        0.000000        0.04841728        0.55383233        0.34073079        0.05701960
     247          0.325838        0.000000        0.04841257        0.55369242        0.34090800        0.05698701
     248          0.325985        0.000000        0.04792279        0.55316594        0.34205569        0.05685558
     249          0.325993        0.000000        0.04793150        0.55319655        0.34200756        0.05686440
     250          0.345955        0.000000        0.27004163        0.42428503        0.26802564        0.03764771
     251          0.345956        0.000000        0.27004777        0.42428148        0.26802318        0.03764757
     252          0.345980        0.000000        0.27000830        0.42436796        0.26799226        0.03763147
     253          0.345988        0.000000        0.27005689        0.42429837        0.26801184        0.03763290
     254          0.345988        0.000000        0.27006486        0.42429347        0.26800889        0.03763277
     255          0.345995        0.000000        0.27010182        0.42423349        0.26802753        0.03763716
     256          0.375177        0.000000        0.50676553        0.18600046        0.23621702        0.07101699
     257          0.375214        0.000000        0.50686606        0.18572874        0.23639495        0.07101026
     258          0.375214        0.000000        0.50686363        0.18572667        0.23639929        0.07101042
     259          0.375229        0.000000        0.50691372        0.18571126        0.23637611        0.07099890