32
Lattice="10.2106219203 0.0 0.0 5.10531096017 8.84265797145 0.0 0.0 0.0 22.0842344718" Properties=species:S:1:pos:R:3:Z:I:1:tags:I:1:forces:R:3 energy=11.62588043428787 pbc="T T F"
Cu      0.00000000       1.47377633      10.00000000
Cu      2.55265548       1.47377633      10.00000000
Cu      5.10531096       1.47377633      10.00000000
Cu      7.65796644       1.47377633      10.00000000
Cu      1.27632774       3.68444082      10.00000000
Cu      3.82898322       3.68444082      10.00000000
Cu      6.38163870       3.68444082      10.00000000
Cu      8.93429418       3.68444082      10.00000000
Cu      2.55265548       5.89510531      10.00000000
Cu      5.10531096       5.89510531      10.00000000
Cu      7.65796644       5.89510531      10.00000000
Cu     10.21062192       5.89510531      10.00000000
Cu      3.82898322       8.10576981      10.00000000
Cu      6.38163870       8.10576981      10.00000000
Cu      8.93429418       8.10576981      10.00000000
Cu     11.48694966       8.10576981      10.00000000
Cu      0.00000000       0.00000000      12.08423447
Cu      2.55265548       0.00000000      12.08423447
Cu      5.10531096       0.00000000      12.08423447
Cu      7.65796644       0.00000000      12.08423447
Cu      1.27632774       2.21066449      12.08423447
Cu      3.82898322       2.21066449      12.08423447
Cu      6.38163870       2.21066449      12.08423447
Cu      8.93429418       2.21066449      12.08423447
Cu      2.55265548       4.42132899      12.08423447
Cu      5.10531096       4.42132899      12.08423447
Cu      7.65796644       4.42132899      12.08423447
Cu     10.21062192       4.42132899      12.08423447
Cu      3.82898322       6.63199348      12.08423447
Cu      6.38163870       6.63199348      12.08423447
Cu      8.93429418       6.63199348      12.08423447
Cu     11.48694966       6.63199348      12.08423447
