      55
 i =        1, E =     -2646.0470646204
 Cu        12.5003129966       12.5002425679       12.4996841839
 Cu        12.5036686265       12.4969892721       14.9239375937
 Cu        12.5016621949       12.4979779171       17.2876143073
 Cu        14.2759775862       11.1769485646       16.0736602108
 Cu        14.2590152557       11.2161998009       13.5864667287
 Cu        14.2565535959       13.7814555852       13.5852417805
 Cu        11.8242998435       14.5723006460       13.5834431199
 Cu        10.3200334708       12.5024750625       13.5863749749
 Cu        11.8269051928       10.4281564129       13.5865242926
 Cu        13.1761969755       10.4286681854       11.4161255730
 Cu        14.6803987260       12.4974814972       11.4143085274
 Cu        13.1739333717       14.5716098588       11.4127558593
 Cu        10.7412037763       13.7845378473       11.4140253062
 Cu        10.7432430821       11.2191787184       11.4153571994
 Cu        12.4961397157       12.5035399280       10.0759505892
 Cu        15.9753780858        9.9676531695       14.6440919997
 Cu        15.9718940088       15.0310598048       14.6421498365
 Cu        11.1673144389       16.5947308642       14.6388702608
 Cu         8.2034547180       12.5008695258       14.6388286680
 Cu        11.1681211464        8.4068505479       14.6417210377
 Cu        13.8332302915        8.4077535214       10.3604644900
 Cu        16.7965977815       12.4984241298       10.3612114580
 Cu        13.8320329914       16.5944400532       10.3594346578
 Cu         9.0245635904       15.0331835124       10.3571663861
 Cu         9.0284586854        9.9690355307       10.3582710432
 Cu        12.4973340825       12.5024711003        7.7124962730
 Cu        14.2795239929       13.8145244979       16.0701306725
 Cu        11.8241274029       14.6069401564       16.0556662733
 Cu        10.2981459606       12.4988413553       16.0572376565
 Cu        11.8329639941       10.3839740585       16.0670197083
 Cu        16.0558839604       12.4998100369       14.7000511620
 Cu        13.6127212147        9.0892326130       14.6903640394
 Cu        14.9665657539        9.0883162038       12.5061916139
 Cu        16.4938452978       11.1806450561       12.4943560433
 Cu        13.6117822890       15.9088990597       14.6876140046
 Cu        16.4934780281       13.8087272124       12.4985200697
 Cu        14.9669095213       15.9059757521       12.5051054966
 Cu         9.5903249953       14.6171649627       14.6929032324
 Cu        12.4950147266       16.7032364823       12.4963320174
 Cu        10.0336094664       15.9123742607       12.4943154560
 Cu         9.6030327204       10.3901806567       14.6987552487
 Cu         8.5058797136       13.8184846088       12.5059392148
 Cu         8.5067958988       11.1912701944       12.5017697686
 Cu        10.0339607649        9.0935892968       12.4949030210
 Cu        12.5063929808        8.2969542800       12.5041817445
 Cu        15.4100617541       10.3828841724       10.3071692410
 Cu        11.3887433509        9.0920586622       10.3130228369
 Cu        13.1745580340       10.3935489497        8.9433311287
 Cu        15.3968672221       14.6095576138       10.3010688377
 Cu        14.7012924741       12.5009911078        8.9433719363
 Cu        11.3877186314       15.9109432696       10.3100506344
 Cu        13.1659670782       14.6171674099        8.9334168261
 Cu         8.9437388479       12.5008660403       10.3006419131
 Cu        10.7230367280       13.8235614970        8.9273767951
 Cu        10.7194750641       11.1868200666        8.9308831294
      55
 i =        2, E =     -2646.0475433379
 Cu        12.4999041913       12.5001458105       12.5002687143
 Cu        12.5031890466       12.4980252185       14.9222882957
 Cu        12.5012639710       12.5005238055       17.2976134520
 Cu        14.2826211015       11.1837726396       16.0767066418
 Cu        14.2526166768       11.2255281638       13.5795787704
 Cu        14.2505129974       13.7742090938       13.5778487764
 Cu        11.8284241229       14.5642197010       13.5782593427
 Cu        10.3210770215       12.5018693200       13.5759596091
 Cu        11.8321923462       10.4361533714       13.5820946111
 Cu        13.1715343959       10.4364060683       11.4217539354
 Cu        14.6791252461       12.4983079300       11.4246066314
 Cu        13.1678255794       14.5642497822       11.4177550934
 Cu        10.7474438051       13.7749157134       11.4211143047
 Cu        10.7491192149       11.2260728342       11.4227074455
 Cu        12.4969049224       12.5022201389       10.0780037158
 Cu        15.9697868719        9.9689580017       14.6395549369
 Cu        15.9699197390       15.0297801614       14.6374694196
 Cu        11.1711127495       16.5897739161       14.6367164058
 Cu         8.2031172265       12.5001468556       14.6365944114
 Cu        11.1722330490        8.4103430257       14.6363915707
 Cu        13.8288167063        8.4122265313       10.3632093212
 Cu        16.7970485695       12.5006248247       10.3634301043
 Cu        13.8281518481       16.5907894718       10.3633083767
 Cu         9.0298736833       15.0308764676       10.3609535747
 Cu         9.0299173418        9.9699592794       10.3627331452
 Cu        12.4985475207       12.5002228239        7.7027191625
 Cu        14.2881979420       13.8112160196       16.0719832767
 Cu        11.8290869903       14.6046080100       16.0523578407
 Cu        10.2991205303       12.5008913815       16.0525140457
 Cu        11.8276514844       10.3869862424       16.0677105217
 Cu        16.0539138794       12.4994660309       14.7008104977
 Cu        13.6120999068        9.0978868605       14.7000826653
 Cu        14.9659928623        9.0969046575       12.5015034714
 Cu        16.4997760030       11.1845790077       12.4990620248
 Cu        13.6119484420       15.9007913578       14.6987620005
 Cu        16.4991412763       13.8067523879       12.5003857342
 Cu        14.9658933580       15.9012150624       12.5012460155
 Cu         9.5957287457       14.6145591772       14.7008620752
 Cu        12.4991417652       16.7020598563       12.4997037825
 Cu        10.0339637709       15.9035778146       12.4986562044
 Cu         9.6110771713       10.3925218891       14.7001511646
 Cu         8.5004254948       13.8152674233       12.5009558859
 Cu         8.5006270781       11.1933047925       12.4998570130
 Cu        10.0339714098        9.0989566103       12.4987328856
 Cu        12.5009397943        8.2983381930       12.5002394030
 Cu        15.4048164555       10.3859265802       10.2991438228
 Cu        11.3882406097        9.0994636297       10.3011703538
 Cu        13.1709631885       10.3963968028        8.9468891318
 Cu        15.3888775170       14.6075164027       10.3001464193
 Cu        14.7011128143       12.4994393599        8.9479008311
 Cu        11.3880990191       15.9024600831       10.2999781130
 Cu        13.1727766258       14.6135574992        8.9327634420
 Cu         8.9454145018       12.5003084072       10.2994195713
 Cu        10.7166674963       13.8164620051        8.9247426413
 Cu        10.7109535811       11.1901025394        8.9292640995
      55
 i =        3, E =     -2646.0476052382
 Cu        12.4999550120       12.5001311787       12.5002007470
 Cu        12.5037037764       12.4977078961       14.9223613228
 Cu        12.5013549608       12.5001786842       17.2964245428
 Cu        14.2855088978       11.1843952825       16.0780078704
 Cu        14.2527144793       11.2245144030       13.5805481537
 Cu        14.2508844670       13.7754539002       13.5789217743
 Cu        11.8283857367       14.5653882744       13.5783637887
 Cu        10.3214412467       12.5020172844       13.5755551356
 Cu        11.8316069585       10.4348783573       13.5819417200
 Cu        13.1716141730       10.4351655144       11.4216782786
 Cu        14.6787400942       12.4981699595       11.4248740364
 Cu        13.1684327040       14.5654320375       11.4180183179
 Cu        10.7472596925       13.7758121773       11.4200482248
 Cu        10.7488191336       11.2248036591       11.4215907492
 Cu        12.4963976194       12.5025995365       10.0779835298
 Cu        15.9710628647        9.9689076024       14.6404406970
 Cu        15.9710159408       15.0300233791       14.6386303335
 Cu        11.1701417370       16.5883865051       14.6381754734
 Cu         8.2031450135       12.5003494982       14.6374287819
 Cu        11.1711692552        8.4115052090       14.6385051960
 Cu        13.8298777857        8.4134210394       10.3615464103
 Cu        16.7970409503       12.5001004846       10.3626617409
 Cu        13.8290412001       16.5894980511       10.3615407882
 Cu         9.0286850245       15.0310825028       10.3599548460
 Cu         9.0288911563        9.9698920496       10.3615474349
 Cu        12.4984600260       12.5004655876        7.7038510715
 Cu        14.2895677320       13.8100930765       16.0727195818
 Cu        11.8287726203       14.6042870689       16.0528948441
 Cu        10.2988778123       12.5007565885       16.0521137245
 Cu        11.8292662172       10.3871602094       16.0684112281
 Cu        16.0546791272       12.4993651810       14.7016049578
 Cu        13.6118359062        9.0973695580       14.7001920914
 Cu        14.9672502988        9.0959573026       12.5018151724
 Cu        16.4989536150       11.1855266881       12.4992537236
 Cu        13.6118456616       15.9019141301       14.6992874629
 Cu        16.4979376626       13.8059226631       12.5001361535
 Cu        14.9671925181       15.9024130954       12.5012721985
 Cu         9.5976377499       14.6135852891       14.7000341672
 Cu        12.4992186658       16.7021964846       12.4996670695
 Cu        10.0327089369       15.9044051845       12.4982764928
 Cu         9.6135561471       10.3937524718       14.7008431907
 Cu         8.5010809449       13.8144113364       12.5008672627
 Cu         8.5019472751       11.1941681295       12.5000420713
 Cu        10.0327452034        9.0976773524       12.4987617182
 Cu        12.5008558623        8.2981379161       12.5002825668
 Cu        15.4029320059       10.3869133623       10.2999821131
 Cu        11.3883316397        9.0984015138       10.3007074854
 Cu        13.1712147862       10.3968629209        8.9465978487
 Cu        15.3864364541       14.6063641646       10.2992964040
 Cu        14.7012490129       12.4995760356        8.9482472785
 Cu        11.3882963854       15.9028773261       10.2999335047
 Cu        13.1709189336       14.6133916700        8.9321268390
 Cu         8.9446259727       12.5006073474       10.2986683597
 Cu        10.7139120981       13.8158396213        8.9233863355
 Cu        10.7097982569       11.1913090343        8.9286100469
      55
 i =        4, E =     -2646.0476818711
 Cu        12.5000294474       12.5000654845       12.5001220955
 Cu        12.5053373313       12.4967950664       14.9227048065
 Cu        12.5021274202       12.4994200552       17.2954449964
 Cu        14.2952060938       11.1879399300       16.0826639576
 Cu        14.2520096717       11.2235574941       13.5825197745
 Cu        14.2509504845       13.7771841530       13.5808248851
 Cu        11.8292528244       14.5668239440       13.5776947065
 Cu        10.3228507667       12.5025353010       13.5727297724
 Cu        11.8315302101       10.4331492562       13.5808099957
 Cu        13.1707839872       10.4334156183       11.4225177698
 Cu        14.6772409662       12.4976740526       11.4273178674
 Cu        13.1684686697       14.5670150120       11.4195807016
 Cu        10.7477088096       13.7764122246       11.4178241045
 Cu        10.7489134769       11.2229262885       11.4195940399
 Cu        12.4948368385       12.5036810356       10.0778973204
 Cu        15.9729970734        9.9691357226       14.6418437881
 Cu        15.9727387675       15.0303584046       14.6406341554
 Cu        11.1688875623       16.5832365691       14.6409881065
 Cu         8.2039070744       12.5008968512       14.6385635064
 Cu        11.1695889621        8.4159462748       14.6421774460
 Cu        13.8312417482        8.4177514111       10.3584575897
 Cu        16.7963604527       12.4991049616       10.3616357097
 Cu        13.8302480177       16.5845583977       10.3583240778
 Cu         9.0269091097       15.0310645294       10.3581885933
 Cu         9.0272817298        9.9698871375       10.3594611014
 Cu        12.4978246003       12.5010695805        7.7047633755
 Cu        14.2949388570       13.8052300420       16.0756327586
 Cu        11.8294156215       14.6026092346       16.0537167474
 Cu        10.2991031919       12.5007276333       16.0502763871
 Cu        11.8330946059       10.3881106120       16.0711159464
 Cu        16.0565982498       12.4991099538       14.7031771003
 Cu        13.6108339919        9.0980156556       14.7017323808
 Cu        14.9695905193        9.0958863220       12.5019315923
 Cu        16.4978348531       11.1888802599       12.5002437163
 Cu        13.6113770337       15.9025377419       14.7016577300
 Cu        16.4962081807       13.8028194786       12.5001285769
 Cu        14.9696246938       15.9036157976       12.5007839056
 Cu         9.6055094382       14.6100847186       14.6995292306
 Cu        12.4998236284       16.7024074363       12.4998838386
 Cu        10.0303717477       15.9041823917       12.4979818215
 Cu         9.6235031474       10.3988710670       14.7024914647
 Cu         8.5019498099       13.8114285541       12.5000538228
 Cu         8.5038150864       11.1973953661       12.4999292416
 Cu        10.0303939579        9.0964131917       12.4993644662
 Cu        12.5000818166        8.2977606826       12.5000300269
 Cu        15.3951897058       10.3904953899       10.3005216457
 Cu        11.3887162090        9.0977909533       10.2983424516
 Cu        13.1706634169       10.3991106437        8.9465978830
 Cu        15.3766128684       14.6015464335       10.2974464675
 Cu        14.7009130040       12.4996855707        8.9498793616
 Cu        11.3890634420       15.9020490026       10.2985000400
 Cu        13.1667548125       14.6123620455        8.9296603576
 Cu         8.9425749169       12.5011784596       10.2971361959
 Cu        10.7047699401       13.8124500016        8.9184760271
 Cu        10.7050654744       11.1965595835        8.9259903895
      55
 i =        5, E =     -2646.0477056922
 Cu        12.5000380030       12.5000545256       12.5001294893
 Cu        12.5054134358       12.4965837682       14.9230216236
 Cu        12.5023498856       12.4992264935       17.2961471338
 Cu        14.2952993284       11.1892108609       16.0833652121
 Cu        14.2521133932       11.2235513449       13.5832193660
 Cu        14.2510908796       13.7770504630       13.5813978919
 Cu        11.8298086884       14.5668107269       13.5774995328
 Cu        10.3233359992       12.5025695397       13.5725826413
 Cu        11.8317801063       10.4332128747       13.5809924617
 Cu        13.1702483584       10.4333630354       11.4227585777
 Cu        14.6767500798       12.4976282908       11.4274604374
 Cu        13.1682372803       14.5669350543       11.4194755291
 Cu        10.7475847199       13.7763841116       11.4170633914
 Cu        10.7487952631       11.2230328594       11.4190428401
 Cu        12.4947440069       12.5039678305       10.0776482725
 Cu        15.9729019017        9.9693721123       14.6421148446
 Cu        15.9723212428       15.0302209228       14.6407874494
 Cu        11.1693403202       16.5824608570       14.6411931043
 Cu         8.2047836491       12.5013906449       14.6384578500
 Cu        11.1697754927        8.4171538677       14.6423590644
 Cu        13.8307725528        8.4183158019       10.3583351738
 Cu        16.7955020953       12.4986778271       10.3617200725
 Cu        13.8300661844       16.5832397376       10.3581093957
 Cu         9.0270038052       15.0308305941       10.3579258099
 Cu         9.0277312669        9.9699962191       10.3593110225
 Cu        12.4976139247       12.5013060648        7.7041053800
 Cu        14.2951948547       13.8029006074       16.0765639458
 Cu        11.8300201874       14.6019750026       16.0539489041
 Cu        10.2997101091       12.5006128830       16.0504411469
 Cu        11.8331292325       10.3882042903       16.0723366625
 Cu        16.0573350600       12.4990621945       14.7032242377
 Cu        13.6107105774        9.0982182944       14.7018672004
 Cu        14.9692712056        9.0965887708       12.5018672309
 Cu        16.4978448804       11.1895619113       12.5001131007
 Cu        13.6112826423       15.9019700380       14.7015427159
 Cu        16.4963781977       13.8015899025       12.5005128624
 Cu        14.9693159011       15.9027949360       12.5006339465
 Cu         9.6089880416       14.6088314376       14.6998754208
 Cu        12.4996540178       16.7024016802       12.4996894999
 Cu        10.0307215660       15.9034891702       12.4980708119
 Cu         9.6245363749       10.4007546445       14.7027717459
 Cu         8.5019973943       13.8108283309       12.5001685914
 Cu         8.5036197924       11.1986893320       12.4995550765
 Cu        10.0307370817        9.0972491332       12.4995217955
 Cu        12.5002759265        8.2977295736       12.5002628878
 Cu        15.3917223051       10.3917508632       10.3002023183
 Cu        11.3888096310        9.0983798404       10.2984438639
 Cu        13.1700505166       10.3999420346        8.9465785763
 Cu        15.3755648158       14.5997391376       10.2972290423
 Cu        14.7003381632       12.4998013571        8.9496953620
 Cu        11.3891526928       15.9018539447       10.2983609431
 Cu        13.1667473326       14.6122679761        8.9285232999
 Cu         8.9417823086       12.5012263001       10.2971147677
 Cu        10.7047326077       13.8113920676        8.9175164621
 Cu        10.7047600438       11.1991952462        8.9250892507
      55
 i =        6, E =     -2646.0474197055
 Cu        12.5000544826       12.4999693915       12.5003211215
 Cu        12.5051693499       12.4942397733       14.9268564885
 Cu        12.5033745070       12.4972115806       17.3052370735
 Cu        14.2955829456       11.2025629177       16.0908708774
 Cu        14.2531233377       11.2244573907       13.5903596467
 Cu        14.2523854595       13.7745555933       13.5873256676
 Cu        11.8373076653       14.5662875970       13.5747450386
 Cu        10.3295500439       12.5024791393       13.5707273441
 Cu        11.8343507455       10.4350177150       13.5841797541
 Cu        13.1628446266       10.4333272308       11.4260672741
 Cu        14.6704940217       12.4977437731       11.4294150006
 Cu        13.1657741743       14.5650581200       11.4170977704
 Cu        10.7463962128       13.7751817809       11.4093645837
 Cu        10.7476797247       11.2253155040       11.4134412423
 Cu        12.4948604502       12.5072045149       10.0746000855
 Cu        15.9718870730        9.9711161049       14.6443007085
 Cu        15.9684274212       15.0280353025       14.6419783339
 Cu        11.1748580046       16.5762458254       14.6425415979
 Cu         8.2151641939       12.5068226483       14.6379285372
 Cu        11.1712112743        8.4294573023       14.6446861722
 Cu        13.8249885865        8.4226883198       10.3579031719
 Cu        16.7852615169       12.4939435203       10.3620727067
 Cu        13.8287662605       16.5699262727       10.3553951592
 Cu         9.0279674150       15.0290652199       10.3558466406
 Cu         9.0320007984        9.9720247354       10.3580489278
 Cu        12.4968393551       12.5039786512        7.6953839724
 Cu        14.2991174874       13.7728172456       16.0873160075
 Cu        11.8374276482       14.5947936578       16.0574118583
 Cu        10.3050152503       12.4989120596       16.0548939527
 Cu        11.8327368499       10.3886419269       16.0878223169
 Cu        16.0671628092       12.4981582666       14.7037431948
 Cu        13.6095816228        9.1006383245       14.7046363930
 Cu        14.9658511667        9.1034105129       12.5011224692
 Cu        16.4980866067       11.1962227231       12.4991329096
 Cu        13.6113029032       15.8959365210       14.7028143256
 Cu        16.4987593413       13.7858939961       12.5048961564
 Cu        14.9664209563       15.8935101226       12.4989191022
 Cu         9.6512145719       14.5931845618       14.7039706632
 Cu        12.4985199629       16.7017841160       12.4974289642
 Cu        10.0344610936       15.8967324955       12.4990614790
 Cu         9.6317709874       10.4221129772       14.7057813849
 Cu         8.5022557986       13.8051214075       12.5009831130
 Cu         8.5010276527       11.2152703278       12.4951938023
 Cu        10.0338043767        9.1066955576       12.5013049317
 Cu        12.5015639466        8.2980845899       12.5029153029
 Cu        15.3491827026       10.4075277350       10.2963913257
 Cu        11.3887685707        9.1047758512       10.2969527248
 Cu        13.1625764375       10.4095128726        8.9452929333
 Cu        15.3682165742       14.5792163392       10.2947896995
 Cu        14.6953908703       12.5016475609        8.9451824906
 Cu        11.3899817973       15.8996038923       10.2955769704
 Cu        13.1675032518       14.6119346699        8.9139323465
 Cu         8.9311607158       12.5021907271       10.2967999535
 Cu        10.7049371871       13.8007849658        8.9072959327
 Cu        10.7001096316       11.2338360896        8.9146622709
      55
 i =        7, E =     -2646.0477653574
 Cu        12.5000115771       12.5000696994       12.5002084612
 Cu        12.5047455478       12.4962080069       14.9241652331
 Cu        12.5024356248       12.4988057474       17.2990181223
 Cu        14.2923538029       11.1920462217       16.0838116770
 Cu        14.2526990147       11.2241419286       13.5848524247
 Cu        14.2515462684       13.7757112119       13.5826622291
 Cu        11.8314168405       14.5662655192       13.5771254560
 Cu        10.3247917845       12.5024681422       13.5732737088
 Cu        11.8324023957       10.4342226390       13.5825250882
 Cu        13.1686440767       10.4338959165       11.4232431053
 Cu        14.6753051414       12.4977316534       11.4269368720
 Cu        13.1676553295       14.5659756704       11.4180020972
 Cu        10.7470224043       13.7758597075       11.4153778993
 Cu        10.7483220531       11.2243820136       11.4178844786
 Cu        12.4952969611       12.5045450240       10.0766406750
 Cu        15.9720436514        9.9696038347       14.6422522705
 Cu        15.9710216893       15.0293470201       14.6404371127
 Cu        11.1713062756       16.5824436348       14.6405610846
 Cu         8.2075482436       12.5024365682       14.6380367961
 Cu        11.1705197074        8.4187002900       14.6419785999
 Cu        13.8286992113        8.4182096863       10.3593052576
 Cu        16.7927454916       12.4979516249       10.3620656801
 Cu        13.8294880056       16.5816479620       10.3582390377
 Cu         9.0277768031       15.0305769560       10.3579633922
 Cu         9.0290497571        9.9707444151       10.3596978217
 Cu        12.4974682816       12.5019773769        7.7013992992
 Cu        14.2946878044       13.7957301144       16.0784975996
 Cu        11.8316362558       14.6003190685       16.0548091680
 Cu        10.3009557232       12.5000638879       16.0528080321
 Cu        11.8318890957       10.3878687394       16.0760001716
 Cu        16.0602833153       12.4988447946       14.7028920459
 Cu        13.6106613886        9.0985461680       14.7021957738
 Cu        14.9674119110        9.0984802585       12.5016547428
 Cu        16.4981450863       11.1903960867       12.4997060529
 Cu        13.6116783313       15.9003126005       14.7011236156
 Cu        16.4975311502       13.7975254950       12.5017858755
 Cu        14.9677808565       15.8995924446       12.5003354489
 Cu         9.6164498225       14.6055015821       14.7013696179
 Cu        12.4992305486       16.7021553260       12.4988650457
 Cu        10.0326694723       15.9017188323       12.4984205547
 Cu         9.6227590828       10.4049493484       14.7031579348
 Cu         8.5018939901       13.8101657975       12.5004838343
 Cu         8.5023704454       11.2029705266       12.4983385076
 Cu        10.0323027010        9.1005236251       12.4997866389
 Cu        12.5008154679        8.2979757804       12.5012295941
 Cu        15.3841182404       10.3950903663       10.2987896332
 Cu        11.3884405966        9.1000855614       10.2988669686
 Cu        13.1683936988       10.4021225770        8.9460826330
 Cu        15.3772628639       14.5956197140       10.2970729714
 Cu        14.6991995133       12.5003590364        8.9474018849
 Cu        11.3892147428       15.9016664807       10.2980077335
 Cu        13.1682182059       14.6127300747        8.9249403245
 Cu         8.9386608526       12.5013692977       10.2974459425
 Cu        10.7076522861       13.8093874441        8.9164984548
 Cu        10.7048745342       11.2070543016        8.9230299104
      55
 i =        8, E =     -2646.0477929777
 Cu        12.5000034445       12.5000691256       12.5002344317
 Cu        12.5046549961       12.4957619748       14.9246743761
 Cu        12.5023188679       12.4984646530       17.2998850081
 Cu        14.2937818833       11.1936012663       16.0850252694
 Cu        14.2526963143       11.2243733501       13.5857428072
 Cu        14.2516592589       13.7754056776       13.5833978586
 Cu        11.8323287367       14.5662847546       13.5767409286
 Cu        10.3258923048       12.5025894450       13.5727938328
 Cu        11.8326417478       10.4343838755       13.5829599044
 Cu        13.1677055910       10.4338392624       11.4237122127
 Cu        14.6741843535       12.4976536151       11.4274121938
 Cu        13.1673966450       14.5658186841       11.4176729740
 Cu        10.7469723893       13.7755915816       11.4144485126
 Cu        10.7482146010       11.2246874668       11.4171779448
 Cu        12.4953647536       12.5051222552       10.0762416769
 Cu        15.9721873740        9.9695976371       14.6424129220
 Cu        15.9711360768       15.0288748928       14.6406972110
 Cu        11.1717484265       16.5814185616       14.6407907793
 Cu         8.2088306200       12.5028516820       14.6383585466
 Cu        11.1703087343        8.4201057467       14.6426735798
 Cu        13.8282279012        8.4191014514       10.3590928189
 Cu        16.7914619805       12.4975361350       10.3617606128
 Cu        13.8296826629       16.5801510153       10.3575729414
 Cu         9.0276289988       15.0306215563       10.3577849334
 Cu         9.0289646282        9.9712853233       10.3594144066
 Cu        12.4976043080       12.5024053399        7.7005452205
 Cu        14.2961486806       13.7906767007       16.0796890041
 Cu        11.8324408196       14.5991998668       16.0554183232
 Cu        10.3011277318       12.4998389803       16.0537992177
 Cu        11.8323877493       10.3878022266       16.0783818214
 Cu        16.0624201141       12.4985798623       14.7030532638
 Cu        13.6103635745        9.0989635701       14.7028384940
 Cu        14.9673155363        9.0989102760       12.5016020963
 Cu        16.4979538872       11.1911590825       12.4998964173
 Cu        13.6119732253       15.8997536560       14.7019353592
 Cu        16.4974963361       13.7946164928       12.5022018005
 Cu        14.9680299268       15.8987531288       12.5000843032
 Cu         9.6207847291       14.6032110492       14.7016830413
 Cu        12.4994206777       16.7020067124       12.4986880797
 Cu        10.0327785620       15.9012659511       12.4984673599
 Cu         9.6243176866       10.4078442799       14.7035023363
 Cu         8.5020600056       13.8095668095       12.5003165367
 Cu         8.5024117966       11.2060300010       12.4978942390
 Cu        10.0320448575        9.1013806905       12.5000529128
 Cu        12.5005991986        8.2981156583       12.5014313613
 Cu        15.3796515747       10.3974509522       10.2985072670
 Cu        11.3881341140        9.1006856241       10.2980521175
 Cu        13.1676123907       10.4036216932        8.9457465933
 Cu        15.3757180286       14.5928138718       10.2967250506
 Cu        14.6990233153       12.5006500357        8.9464221904
 Cu        11.3894863284       15.9012791921       10.2974011589
 Cu        13.1677333550       14.6128712041        8.9225888144
 Cu         8.9364008282       12.5017006799       10.2972646751
 Cu        10.7063698636       13.8083080892        8.9151003901
 Cu        10.7034555019       11.2125154519        8.9218669355
      55
 i =        9, E =     -2646.0477937255
 Cu        12.4999633591       12.5001021857       12.5003134147
 Cu        12.5036816896       12.4943042527       14.9261030246
 Cu        12.5017177798       12.4973274523       17.3025849016
 Cu        14.2953346115       11.1966053518       16.0871762323
 Cu        14.2531423190       11.2252112856       13.5881151299
 Cu        14.2522187914       13.7740147059       13.5852097634
 Cu        11.8346085829       14.5662436842       13.5759669767
 Cu        10.3290802851       12.5029548260       13.5725191341
 Cu        11.8331637084       10.4350188791       13.5848450420
 Cu        13.1652990385       10.4338900541       11.4246951572
 Cu        14.6709390226       12.4974346523       11.4277945807
 Cu        13.1668398419       14.5652378876       11.4159605085
 Cu        10.7464079699       13.7747652086       11.4120466956
 Cu        10.7475965514       11.2261524279       11.4154856371